# LAMMPS data file written by OVITO Basic 3.8.0

10640 atoms
13720 bonds
26880 angles
39480 dihedrals
13440 impropers
4 atom types
3 bond types
4 angle types
3 dihedral types
2 improper types

0.0 33.3675 xlo xhi
-69.684 104.526 ylo yhi
0.0 100 zlo zhi

Masses

1 15.9994  # O
2 15.9994  # O
3 28.086  # Si
4 1.008  # H

Pair Coeffs # lj/cut/coul/long

1 0.054 3.47
2 0.122 3.47
3 0.093 4.15
4 0 0

Bond Coeffs # harmonic

1 285 1.68
2 285 1.68
3 495 0.945

Angle Coeffs # harmonic

1 100 149
2 50 115
3 100 109.5
4 100 109.5

Dihedral Coeffs

  1     0.0000     0.0000     0.0000     0.0000    
  2     0.0000     0.0000     0.0000     0.0000     
  3     0.0000     0.0000     0.0000     0.0000    
    

Improper Coeffs

  1     0 0 0 
  2     0 0 0



Atoms  # full

795 0 1 -0.55 3.466240769 -69.658273296 11.279426463 0 0 0
18 0 1 -0.55 9.553962146 -69.52210233 2.96830134 0 0 0
740 0 1 -0.55 6.506951407 -34.870617615 7.053127484 0 -1 0
396 0 1 -0.55 2.329227809 -65.843019939 6.968606792 0 0 0
805 0 1 -0.55 7.61079093 -66.019539537 11.237001978 0 0 0
10 0 1 -0.55 5.512655134 -65.988034325 3.037312467 0 0 0
800 0 1 -0.55 5.149105798 -66.836304087 11.56873478 0 0 0
6 0 1 -0.55 2.889391173 -66.73716029 3.461395862 0 0 0
406 0 1 -0.55 8.270283529 -66.719905687 7.591153699 0 0 0
399 0 1 -0.55 3.232410725 -68.944748876 8.630607729 0 0 0
16 0 2 -0.275 9.111764029 -68.38099461 0.582193367 0 0 0
12 0 1 -0.55 6.240781591 -68.831595174 4.575046646 0 0 0
792 0 1 -0.55 2.729410989 -67.202648991 10.581524317 0 0 0
402 0 1 -0.55 5.885958826 -67.231533463 6.611865329 0 0 0
395 0 1 -0.55 1.537402479 -68.348363776 6.603092542 0 0 0
804 0 1 -0.55 7.000480353 -68.414353787 10.691708764 0 0 0
9 0 1 -0.55 4.654694213 -68.481002552 2.647823168 0 0 0
13 0 1 -0.55 7.112466482 -69.173795616 2.123061251 0 0 0
393 0 1 -0.55 1.064137217 -69.191754285 10.138560284 0 0 0
400 0 1 -0.55 4.05200136 -69.093541106 6.083528934 0 0 0
3 0 1 -0.55 0.733831742 -66.408548261 4.995201432 0 0 0
403 0 1 -0.55 6.056951322 -66.556998715 9.109187764 0 0 0
7 0 2 -0.275 3.884045041 -66.592661587 1.066840271 0 0 0
15 0 3 1.1 8.619710345 -68.517177732 2.112180263 0 0 0
397 0 3 1.1 2.642413435 -68.727387571 10.124942344 0 0 0
401 0 3 1.1 5.625552253 -68.738400491 6.096701041 0 0 0
394 0 3 1.1 1.097607148 -66.822196292 6.508927881 0 0 0
802 0 3 1.1 6.463325578 -66.967663783 10.627156467 0 0 0
8 0 3 1.1 4.273684208 -66.954998913 2.588691365 0 0 0
797 0 3 1.1 3.595287075 -66.313506298 11.628835564 0 0 0
5 0 3 1.1 1.327433212 -66.209197882 3.476185215 0 0 0
405 0 3 1.1 6.658398518 -66.316503542 7.631809969 0 0 0
398 0 3 1.1 2.823917249 -69.276915832 7.025761365 0 0 0
808 0 3 1.1 8.265811871 -69.175834394 11.193399983 0 0 0
11 0 3 1.1 5.88975644 -69.322378756 3.114985166 0 0 0
1232 0 1 -0.55 0.003011254 -37.359700266 14.537435126 1 0 0
336 0 1 -0.55 0.557235281 -37.402880527 2.636411959 1 0 0
2073 0 1 -0.55 2.772259343 -34.88701041 23.283726574 0 -1 0
810 0 1 -0.55 8.852906127 -69.601690506 15.253209661 0 0 0
1652 0 1 -0.55 5.885324812 -34.884506031 19.193407987 0 -1 0
1313 0 1 -0.55 1.85762938 -65.837827278 19.006298126 0 0 0
1708 0 1 -0.55 7.182758906 -65.865150161 23.000966264 0 0 0
799 0 1 -0.55 4.677301202 -66.009850879 14.937124955 0 0 0
1704 0 1 -0.55 4.740716972 -66.471025344 23.730097287 0 0 0
791 0 1 -0.55 2.274164631 -66.648987607 15.603601159 0 0 0
1322 0 1 -0.55 7.597676056 -66.701985317 19.564160545 0 0 0
1315 0 1 -0.55 2.742325963 -69.056404019 20.659133122 0 0 0
809 0 1 -0.55 8.609431871 -68.730377805 12.674705899 0 0 0
1319 0 1 -0.55 5.562865003 -68.81354939 16.700145374 0 0 0
1699 0 1 -0.55 2.403043856 -67.19430225 22.56677453 0 0 0
1318 0 1 -0.55 5.182700294 -67.228166984 18.679606079 0 0 0
1312 0 1 -0.55 1.010209792 -68.386528983 19.010748663 0 0 0
1707 0 1 -0.55 6.418281549 -68.356424762 22.859749028 0 0 0
798 0 1 -0.55 3.957694006 -68.376411757 14.573574033 0 0 0
803 0 1 -0.55 6.515667845 -69.030499394 14.204524815 0 0 0
1697 0 1 -0.55 0.56183763 -69.035981446 22.204074303 0 0 0
1316 0 1 -0.55 3.456162197 -69.089442647 18.314484494 0 0 0
1310 0 1 -0.55 0.178873752 -66.682350419 17.078097617 0 0 0
1705 0 1 -0.55 5.508683974 -66.687560478 21.191396662 0 0 0
793 0 1 -0.55 3.016502122 -66.572082309 13.100517512 0 0 0
806 0 3 1.1 8.051970896 -68.628226507 14.163474904 0 0 0
1698 0 3 1.1 2.161339119 -68.784891535 22.176709646 0 0 0
1317 0 3 1.1 5.014120467 -68.749347197 18.206132162 0 0 0
1311 0 3 1.1 0.660914752 -66.80343255 18.644973448 0 0 0
1706 0 3 1.1 5.980261704 -66.869990694 22.690053039 0 0 0
796 0 3 1.1 3.496207964 -66.875776158 14.586144215 0 0 0
1702 0 3 1.1 3.057446944 -66.277644786 23.700962952 0 0 0
790 0 3 1.1 0.669292677 -66.300193318 15.618004431 0 0 0
1321 0 3 1.1 6.014073007 -66.325634452 19.686457633 0 0 0
1314 0 3 1.1 2.221138251 -69.399566401 19.25796126 0 0 0
1709 0 3 1.1 7.608495056 -69.393634782 23.311093182 0 0 0
801 0 3 1.1 5.199182214 -69.267262098 15.173534123 0 0 0
1710 0 2 -0.675 8.214286984 -69.020594765 24.771187343 0 0 0
1700 0 2 -0.675 2.573369146 -66.60645909 25.238571771 0 0 0
1773 0 2 -0.675 7.982759775 -64.012758082 24.688172439 0 0 0
1763 0 2 -0.675 2.925297703 -61.59839579 25.137879591 0 0 0
1835 0 2 -0.675 7.902465854 -59.166329425 24.633767015 0 0 0
1825 0 2 -0.675 2.410652014 -56.721751648 25.030118453 0 0 0
1898 0 2 -0.675 8.118879679 -54.15481214 24.699237321 0 0 0
1886 0 2 -0.675 2.616784383 -51.632622273 25.230257988 0 0 0
1961 0 2 -0.675 8.13449729 -49.162986359 24.687780261 0 0 0
1949 0 2 -0.675 2.524913629 -46.186967522 25.107240932 0 0 0
2021 0 2 -0.675 8.085608903 -44.180430407 24.694457042 0 0 0
2011 0 2 -0.675 2.696573579 -41.302620853 25.288918836 0 0 0
2081 0 2 -0.675 7.880638146 -39.192577409 24.724572798 0 0 0
2071 0 2 -0.675 2.57009913 -36.595421898 25.262205858 0 0 0
1727 0 2 -0.675 16.424798755 -68.800821877 24.922029524 0 0 0
1716 0 2 -0.675 11.023550099 -66.537370828 25.291865049 0 0 0
1788 0 2 -0.675 16.544567085 -63.832509521 24.630428624 0 0 0
1777 0 2 -0.675 11.075008104 -61.554170141 25.170549381 0 0 0
1850 0 2 -0.675 16.540261762 -58.988067255 24.960786852 0 0 0
1840 0 2 -0.675 10.926473972 -56.572345908 25.095717533 0 0 0
1914 0 2 -0.675 16.413885771 -54.112398392 24.87194391 0 0 0
1903 0 2 -0.675 10.773668829 -51.558563358 24.972766816 0 0 0
1974 0 2 -0.675 16.546736156 -48.704278915 24.367439156 0 0 0
1966 0 2 -0.675 11.128434782 -46.591655498 25.231239409 0 0 0
2036 0 2 -0.675 16.369002608 -44.031720553 24.601163563 0 0 0
2025 0 2 -0.675 11.060258221 -41.569299006 25.064751084 0 0 0
2097 0 2 -0.675 16.64794953 -39.093774025 24.424660067 0 0 0
2087 0 2 -0.675 10.959945395 -36.309017966 25.29278013 0 0 0
1743 0 2 -0.675 24.789817063 -69.289483005 24.731185191 0 0 0
1733 0 2 -0.675 19.528125906 -66.142284264 25.269212381 0 0 0
1803 0 2 -0.675 24.549313719 -64.002825604 24.777799737 0 0 0
1793 0 2 -0.675 19.345420699 -61.458992636 25.278966101 0 0 0
1866 0 2 -0.675 24.712830453 -59.18898208 24.756719684 0 0 0
1856 0 2 -0.675 19.432785235 -56.393491716 25.396615587 0 0 0
1929 0 2 -0.675 24.552750816 -53.933439298 24.848245435 0 0 0
1918 0 2 -0.675 19.178332605 -51.434111891 25.04131406 0 0 0
1990 0 2 -0.675 24.508933789 -48.996817031 24.702183533 0 0 0
1978 0 2 -0.675 18.913400608 -46.895485668 25.041444786 0 0 0
2051 0 2 -0.675 24.96097577 -44.281566568 24.856428492 0 0 0
2042 0 2 -0.675 19.45117311 -41.663154328 25.160662984 0 0 0
2113 0 2 -0.675 24.845413309 -39.333966955 24.441484696 0 0 0
2103 0 2 -0.675 19.6162254 -36.833523014 25.10999008 0 0 0
1747 0 2 -0.675 27.697291313 -66.322567619 25.093034724 0 0 0
1809 0 2 -0.675 27.793166047 -61.29226608 25.182137167 0 0 0
1871 0 2 -0.675 27.510546323 -56.627305342 25.124654804 0 0 0
1934 0 2 -0.675 27.344592989 -51.390198353 25.203088445 0 0 0
1995 0 2 -0.675 27.594007326 -46.582037727 25.276609131 0 0 0
2056 0 2 -0.675 27.550526451 -41.350470823 25.21369481 0 0 0
2118 0 2 -0.675 27.561470265 -36.570816606 24.962488241 0 0 0
1756 0 2 -0.675 33.111783794 -68.910675182 24.707420377 0 0 0
1821 0 2 -0.675 33.012237253 -64.021191808 24.639070197 0 0 0
1882 0 2 -0.675 33.017544068 -59.303432519 24.752725712 0 0 0
1944 0 2 -0.675 33.091393928 -54.119508896 24.790827459 0 0 0
2006 0 2 -0.675 32.970992082 -48.822876627 24.817212646 0 0 0
2067 0 2 -0.675 33.100837991 -44.09971591 24.631214931 0 0 0
2128 0 2 -0.675 33.029725078 -39.119249694 24.626042475 0 0 0
1945 0 4 0.4 0.052782645 -44.877697749 25.054183389 1 0 0
2120 0 4 0.4 28.128482959 -36.216172395 25.621080249 0 0 0
2090 0 4 0.4 11.686973352 -36.065733186 25.83488477 0 0 0
2007 0 4 0.4 0.105534842 -39.85473847 25.012695471 1 0 0
2099 0 4 0.4 17.266558811 -39.77729625 24.619520213 0 0 0
2058 0 4 0.4 27.760063865 -42.169851042 25.621011151 0 0 0
2029 0 4 0.4 11.797268055 -41.435957481 25.629798563 0 0 0
1959 0 4 0.4 7.67358191 -44.833356462 25.227483541 0 0 0
2053 0 4 0.4 25.55344896 -39.918990515 24.65819984 0 0 0
1991 0 4 0.4 24.51211593 -44.814402479 25.485890082 0 0 0
1937 0 4 0.4 28.038147665 -51.360052694 25.834607285 0 0 0
1927 0 4 0.4 23.744828401 -54.031639112 25.315113519 0 0 0
1810 0 4 0.4 27.81762335 -60.409343145 25.501174608 0 0 0
2114 0 4 0.4 25.328683327 -35.173045787 24.992980111 0 -1 0
1975 0 4 0.4 16.820858126 -49.427226989 24.89060063 0 0 0
1881 0 4 0.4 32.874525453 -54.915498046 25.237729743 0 0 0
1819 0 4 0.4 32.641460946 -64.703751984 25.166248881 0 0 0
1952 0 4 0.4 3.105144531 -45.704037328 25.666341167 0 0 0
1828 0 4 0.4 3.068477439 -56.612770274 25.687238523 0 0 0
1796 0 4 0.4 20.124166746 -61.309382103 25.779953945 0 0 0
1854 0 4 0.4 19.092340257 -55.541647088 25.603711227 0 0 0
1904 0 4 0.4 10.857785001 -50.780307861 25.489529949 0 0 0
1779 0 4 0.4 11.405261181 -60.832354168 25.665761243 0 0 0
2083 0 4 0.4 8.818930695 -34.854908016 25.030809394 0 -1 0
1787 0 4 0.4 16.478511627 -64.545736119 25.237034076 0 0 0
1982 0 4 0.4 19.593240881 -47.209044647 25.606240618 0 0 0
1771 0 4 0.4 7.603659198 -59.926545903 25.098326017 0 0 0
1703 0 4 0.4 3.285912347 -66.423341425 25.820054501 0 0 0
2072 0 4 0.4 2.645453673 -35.777089684 25.71745328 0 0 0
1964 0 4 0.4 10.59248461 -45.896898727 25.562840606 0 0 0
2044 0 4 0.4 20.155791046 -41.421405911 25.730168843 0 0 0
1930 0 4 0.4 24.588249754 -49.785408622 25.206354017 0 0 0
1919 0 4 0.4 19.27623299 -50.609222017 25.480548573 0 0 0
1836 0 4 0.4 8.375741988 -54.955667884 25.117479056 0 0 0
1720 0 4 0.4 11.447214837 -65.856766741 25.785594184 0 0 0
1764 0 4 0.4 2.975927046 -62.527743168 25.23904169 0 0 0
1804 0 4 0.4 25.217410196 -64.533735726 25.168257872 0 0 0
1736 0 4 0.4 20.31917741 -66.072398403 25.768462282 0 0 0
1868 0 4 0.4 27.137404518 -55.830083379 25.448173212 0 0 0
1890 0 4 0.4 3.009656999 -51.042834967 25.841217628 0 0 0
1841 0 4 0.4 11.151629605 -55.836000634 25.632107317 0 0 0
1849 0 4 0.4 16.509968836 -54.94093741 25.306467033 0 0 0
2004 0 4 0.4 32.177397458 -48.568176387 25.251781369 0 0 0
2014 0 4 0.4 3.294785543 -40.777475099 25.783554365 0 0 0
1728 0 4 0.4 16.914611918 -69.493515099 25.327150109 0 0 0
1696 0 4 0.4 0.175533757 -69.658109621 25.076202515 1 0 0
1711 0 4 0.4 8.407833838 -64.755171637 25.072170105 0 0 0
1899 0 4 0.4 8.47048102 -49.975646314 25.018598602 0 0 0
2082 0 4 0.4 8.653030912 -39.678935428 24.955773331 0 0 0
1789 0 4 0.4 16.970151439 -59.769308266 25.268058702 0 0 0
2037 0 4 0.4 17.086978954 -44.586835543 24.857517074 0 0 0
1864 0 4 0.4 23.992501035 -59.529204285 25.252045063 0 0 0
2106 0 4 0.4 20.320729954 -36.510691187 25.639123207 0 0 0
1748 0 4 0.4 28.101323501 -65.653957704 25.612591378 0 0 0
1996 0 4 0.4 27.733536841 -45.768754153 25.718625352 0 0 0
1757 0 4 0.4 0.029797974 -60.104900517 25.063030099 1 0 0
794 0 1 -0.55 3.38768678 -64.775782298 11.285711066 0 0 0
75 0 1 -0.55 9.658613115 -64.6708816 3.109125666 0 0 0
404 0 1 -0.55 6.526276378 -64.767557857 7.185768022 0 0 0
451 0 1 -0.55 2.49688378 -60.84248052 6.940978733 0 0 0
880 0 1 -0.55 7.752043358 -60.948602135 10.989921081 0 0 0
66 0 1 -0.55 5.335595753 -60.843840095 3.080528624 0 0 0
876 0 1 -0.55 5.270759447 -61.606028208 11.620324717 0 0 0
62 0 1 -0.55 2.970783553 -61.68168922 3.509515708 0 0 0
461 0 1 -0.55 8.275355883 -61.459131814 7.685691026 0 0 0
454 0 1 -0.55 3.258473393 -64.072841109 8.72062818 0 0 0
73 0 2 -0.275 9.271744213 -63.613890104 0.688513349 0 0 0
68 0 1 -0.55 6.340183552 -64.124245811 4.659292228 0 0 0
868 0 1 -0.55 2.994709968 -62.284539116 10.553241652 0 0 0
457 0 1 -0.55 5.947144334 -62.255160252 6.540490891 0 0 0
450 0 1 -0.55 1.582554166 -63.330413049 6.740250443 0 0 0
879 0 1 -0.55 6.93258052 -63.47636844 10.701660524 0 0 0
65 0 1 -0.55 4.731397141 -63.461835842 2.727715282 0 0 0
69 0 1 -0.55 7.172694257 -64.176940499 2.276193819 0 0 0
448 0 1 -0.55 1.148664357 -64.156866258 10.225961338 0 0 0
455 0 1 -0.55 4.119076478 -64.130065809 6.177601403 0 0 0
59 0 1 -0.55 0.820294239 -61.493913143 4.952024785 0 0 0
458 0 1 -0.55 6.046863301 -61.695037253 9.077828161 0 0 0
63 0 2 -0.275 3.939072416 -61.636487773 1.007957238 0 0 0
70 0 3 1.1 8.710879457 -63.650378952 2.269103397 0 0 0
452 0 3 1.1 2.695340361 -63.777340282 10.206582674 0 0 0
456 0 3 1.1 5.731668351 -63.80692895 6.14832366 0 0 0
449 0 3 1.1 1.17115666 -61.787322156 6.535357944 0 0 0
878 0 3 1.1 6.456291015 -61.934462631 10.618907071 0 0 0
64 0 3 1.1 4.232170514 -61.928433348 2.592763625 0 0 0
872 0 3 1.1 3.679581495 -61.281044135 11.665366649 0 0 0
61 0 3 1.1 1.388568993 -61.226049387 3.480676482 0 0 0
460 0 3 1.1 6.690808404 -61.238316719 7.663758815 0 0 0
453 0 3 1.1 2.792315046 -64.309896319 7.129988511 0 0 0
882 0 3 1.1 8.135197936 -64.471638979 11.239621375 0 0 0
67 0 3 1.1 5.927512301 -64.436056342 3.20125383 0 0 0
1230 0 1 -0.55 33.241162273 -42.360448971 14.671778516 -1 0 0
280 0 1 -0.55 0.637555218 -42.430010591 2.77626706 0 0 0
1701 0 1 -0.55 2.750701899 -64.717720976 23.366152236 0 0 0
886 0 1 -0.55 8.743749935 -64.699982109 15.228527814 0 0 0
1320 0 1 -0.55 5.691626687 -64.781045067 19.272625984 0 0 0
1366 0 1 -0.55 1.814681573 -60.923579312 18.939060092 0 0 0
1770 0 1 -0.55 7.266236319 -60.93260506 22.908784931 0 0 0
874 0 1 -0.55 4.681591397 -60.925356418 15.063676491 0 0 0
1766 0 1 -0.55 4.879212243 -61.472479847 23.562756316 0 0 0
867 0 1 -0.55 2.208825963 -61.602473476 15.572896161 0 0 0
1373 0 1 -0.55 7.664094286 -61.725496817 19.559446605 0 0 0
1761 0 1 -0.55 2.661936069 -64.144075973 20.772328169 0 0 0
884 0 1 -0.55 8.476916146 -64.037257952 12.698274624 0 0 0
1371 0 1 -0.55 5.546453198 -64.249708909 16.635722827 0 0 0
1760 0 1 -0.55 2.627764 -62.246203573 22.536003194 0 0 0
1370 0 1 -0.55 5.381907932 -62.220448511 18.430102849 0 0 0
1365 0 1 -0.55 0.984513112 -63.447407627 18.782065986 0 0 0
1769 0 1 -0.55 6.403588355 -63.41889966 22.727108978 0 0 0
873 0 1 -0.55 3.970642794 -63.450021355 14.761601903 0 0 0
877 0 1 -0.55 6.343724205 -64.198025333 14.170153636 0 0 0
1758 0 1 -0.55 0.533471629 -63.858856606 22.135070493 0 0 0
1368 0 1 -0.55 3.431935433 -63.987491179 18.228131199 0 0 0
1363 0 1 -0.55 0.175735014 -61.668132421 17.047656022 0 0 0
1767 0 1 -0.55 5.611586557 -61.554449015 21.056399642 0 0 0
869 0 1 -0.55 3.112675215 -61.543366248 13.151845022 0 0 0
881 0 3 1.1 7.920012357 -63.814875037 14.141281729 0 0 0
1759 0 3 1.1 2.120625027 -63.762946862 22.22168524 0 0 0
1369 0 3 1.1 5.037900593 -63.816582554 18.148323959 0 0 0
1364 0 3 1.1 0.6146293 -61.89079421 18.569355293 0 0 0
1768 0 3 1.1 6.066685662 -61.882116405 22.587070228 0 0 0
871 0 3 1.1 3.500880268 -61.890202188 14.661106788 0 0 0
1765 0 3 1.1 3.360621625 -61.231590511 23.596932382 0 0 0
866 0 3 1.1 0.657778002 -61.335794804 15.612766611 0 0 0
1372 0 3 1.1 6.119538497 -61.209843547 19.5441263 0 0 0
1367 0 3 1.1 2.251005993 -64.384686434 19.217369866 0 0 0
1772 0 3 1.1 7.612606197 -64.371094321 23.132952684 0 0 0
875 0 3 1.1 5.125752853 -64.484011214 15.13222276 0 0 0
870 0 1 -0.55 3.409777292 -59.733840243 11.288395826 0 0 0
131 0 1 -0.55 9.483416116 -59.702718548 3.199453421 0 0 0
459 0 1 -0.55 6.371024939 -59.732620884 7.308261199 0 0 0
508 0 1 -0.55 2.412354651 -55.785205079 7.184655388 0 0 0
952 0 1 -0.55 7.866889259 -55.835145824 11.11267571 0 0 0
123 0 1 -0.55 5.276078756 -55.809426075 3.433021494 0 0 0
948 0 1 -0.55 5.446176983 -56.637586802 11.716171255 0 0 0
119 0 1 -0.55 2.77482921 -56.71756906 3.769454578 0 0 0
517 0 1 -0.55 8.210950085 -56.511008209 7.643594331 0 0 0
511 0 1 -0.55 3.29915367 -59.139075611 8.742756968 0 0 0
130 0 2 -0.275 9.165191205 -58.835943405 0.695387622 0 0 0
125 0 1 -0.55 6.265315914 -59.020165269 4.778197269 0 0 0
941 0 1 -0.55 3.242956727 -57.314529369 10.611443983 0 0 0
514 0 1 -0.55 5.921455486 -57.177984022 6.668103356 0 0 0
507 0 1 -0.55 1.628839617 -58.367060441 6.927492006 0 0 0
951 0 1 -0.55 7.034955754 -58.389016172 10.616354012 0 0 0
122 0 1 -0.55 4.636091139 -58.304746424 2.896599599 0 0 0
126 0 1 -0.55 7.067889633 -59.131513301 2.347928485 0 0 0
505 0 1 -0.55 1.03383586 -58.883654197 10.321873239 0 0 0
512 0 1 -0.55 4.150577239 -58.976810516 6.250580161 0 0 0
114 0 1 -0.55 0.705332475 -56.510485775 5.322207124 0 0 0
515 0 1 -0.55 6.119351649 -56.37460204 9.217736185 0 0 0
120 0 2 -0.275 3.716788872 -56.224917945 1.434246756 0 0 0
127 0 3 1.1 8.652180026 -58.741462824 2.259374798 0 0 0
509 0 3 1.1 2.696340859 -58.785514502 10.236894518 0 0 0
513 0 3 1.1 5.703082933 -58.72086563 6.254167809 0 0 0
506 0 3 1.1 1.244405823 -56.825259015 6.81652174 0 0 0
950 0 3 1.1 6.704894189 -56.807031989 10.683984224 0 0 0
121 0 3 1.1 4.127251519 -56.777652086 2.895054545 0 0 0
944 0 3 1.1 3.883444345 -56.34114549 11.697643285 0 0 0
117 0 3 1.1 1.188143241 -56.350903477 3.812814876 0 0 0
516 0 3 1.1 6.668987161 -56.207457432 7.696428117 0 0 0
510 0 3 1.1 2.867666647 -59.332707519 7.219812386 0 0 0
954 0 3 1.1 8.208246951 -59.42391224 11.109206594 0 0 0
124 0 3 1.1 5.825660936 -59.305070448 3.270415682 0 0 0
1157 0 1 -0.55 33.315282983 -47.317703746 14.740586237 0 0 0
225 0 1 -0.55 0.53084044 -47.395491365 2.649001653 1 0 0
1762 0 1 -0.55 2.889625882 -59.728368707 23.291583791 0 0 0
885 0 1 -0.55 8.718721828 -59.806051425 15.201620699 0 0 0
1428 0 1 -0.55 5.892853284 -59.647864016 19.189414016 0 0 0
1421 0 1 -0.55 1.697683011 -55.916731736 19.128201084 0 0 0
1833 0 1 -0.55 7.191418781 -56.030694015 23.026432466 0 0 0
946 0 1 -0.55 4.778169478 -55.958169165 15.175039423 0 0 0
1829 0 1 -0.55 4.659362803 -56.767858786 23.601449257 0 0 0
1423 0 1 -0.55 2.332931441 -56.70129363 15.662916612 0 0 0
1430 0 1 -0.55 7.59973175 -56.588621337 19.616339726 0 0 0
1826 0 1 -0.55 2.767555213 -59.245963739 20.765651388 0 0 0
956 0 1 -0.55 8.584437081 -58.991412703 12.628419144 0 0 0
1427 0 1 -0.55 5.607111481 -59.046059508 16.634085825 0 0 0
1824 0 1 -0.55 2.404312877 -57.283895833 22.458357811 0 0 0
1426 0 1 -0.55 5.267242166 -57.245281416 18.525164056 0 0 0
1420 0 1 -0.55 1.020887072 -58.472240013 18.87987634 0 0 0
1832 0 1 -0.55 6.426734313 -58.450214694 22.540324956 0 0 0
945 0 1 -0.55 4.091878057 -58.385914804 14.769392782 0 0 0
949 0 1 -0.55 6.42928056 -59.15461984 14.152083207 0 0 0
1822 0 1 -0.55 0.542215542 -59.182186284 22.24558273 0 0 0
1424 0 1 -0.55 3.506620699 -59.108650841 18.253466676 0 0 0
1418 0 1 -0.55 0.220520713 -56.702269949 17.089359563 0 0 0
1830 0 1 -0.55 5.448826599 -56.410567934 21.140331579 0 0 0
940 0 1 -0.55 3.227171538 -56.595869979 13.130894719 0 0 0
953 0 3 1.1 8.055575075 -58.81534621 14.114569727 0 0 0
1823 0 3 1.1 2.130970134 -58.854936945 22.173566369 0 0 0
1425 0 3 1.1 5.014731171 -58.745366019 18.151203833 0 0 0
1419 0 3 1.1 0.569779951 -56.968669747 18.653942811 0 0 0
1831 0 3 1.1 5.90970548 -56.909632627 22.589491585 0 0 0
943 0 3 1.1 3.584440725 -56.903184773 14.690633301 0 0 0
1827 0 3 1.1 3.056512086 -56.373521858 23.582726174 0 0 0
939 0 3 1.1 0.737067945 -56.439912522 15.593061132 0 0 0
1429 0 3 1.1 5.999246297 -56.219620901 19.579480851 0 0 0
1422 0 3 1.1 2.237756857 -59.434472055 19.264768767 0 0 0
1834 0 3 1.1 7.595366756 -59.39421867 23.108532289 0 0 0
947 0 3 1.1 5.241643322 -59.394184395 15.152257005 0 0 0
942 0 1 -0.55 3.541059302 -54.784706564 11.309149065 0 0 0
187 0 1 -0.55 9.447342007 -54.720267497 3.01433274 0 0 0
571 0 1 -0.55 6.433732203 -54.636311418 7.22642478 0 0 0
563 0 1 -0.55 2.472722655 -50.852938853 7.320962106 0 0 0
1024 0 1 -0.55 7.745826298 -50.899324345 11.143381684 0 0 0
179 0 1 -0.55 5.447027928 -50.826904398 3.136721044 0 0 0
1020 0 1 -0.55 5.365672967 -51.683016902 11.663010654 0 0 0
175 0 1 -0.55 3.019370348 -51.609375518 3.895384433 0 0 0
573 0 1 -0.55 8.241284013 -51.604009923 7.603461453 0 0 0
566 0 1 -0.55 3.269118848 -54.022936502 8.773592692 0 0 0
185 0 2 -0.275 9.081997233 -53.82146393 0.590684032 0 0 0
181 0 1 -0.55 6.187488304 -53.898693802 4.806624318 0 0 0
1012 0 1 -0.55 3.013164477 -52.285970142 10.690923433 0 0 0
569 0 1 -0.55 5.87998207 -52.09955364 6.668430658 0 0 0
562 0 1 -0.55 1.560328397 -53.284830727 6.975284549 0 0 0
1023 0 1 -0.55 7.007287915 -53.383563484 10.607647076 0 0 0
178 0 1 -0.55 4.642933509 -53.354427661 2.78190413 0 0 0
182 0 1 -0.55 7.069721559 -54.148225109 2.238228163 0 0 0
561 0 1 -0.55 1.174860291 -54.291253623 10.381843298 0 0 0
567 0 1 -0.55 4.049431493 -53.965955882 6.270024188 0 0 0
171 0 1 -0.55 0.82910578 -51.406020937 5.341238974 0 0 0
570 0 1 -0.55 6.205298357 -51.401490406 9.116847917 0 0 0
176 0 2 -0.275 3.752096695 -51.322936273 1.282973741 0 0 0
183 0 3 1.1 8.604659865 -53.709941407 2.101855837 0 0 0
564 0 3 1.1 2.760046508 -53.848438351 10.289924393 0 0 0
568 0 3 1.1 5.636397795 -53.609709898 6.19444652 0 0 0
560 0 3 1.1 1.138120344 -51.754984004 6.830466983 0 0 0
1022 0 3 1.1 6.570876598 -51.876402652 10.622704954 0 0 0
177 0 3 1.1 4.219756783 -51.794119816 2.855209947 0 0 0
1016 0 3 1.1 3.753465169 -51.321054264 11.710998799 0 0 0
174 0 3 1.1 1.417468062 -51.302967453 3.890723174 0 0 0
572 0 3 1.1 6.712539518 -51.182034886 7.600908394 0 0 0
565 0 3 1.1 2.828323019 -54.310665733 7.294905198 0 0 0
1027 0 3 1.1 8.274654988 -54.316590114 11.095981807 0 0 0
180 0 3 1.1 5.806218982 -54.321434314 3.299156619 0 0 0
1084 0 1 -0.55 33.312480396 -52.396865328 14.667653819 0 0 0
170 0 1 -0.55 0.524131337 -52.292314131 2.927743358 1 0 0
1888 0 1 -0.55 2.862461274 -54.746300914 23.293154454 0 0 0
957 0 1 -0.55 8.797410328 -54.795371281 15.251835087 0 0 0
1485 0 1 -0.55 5.816093428 -54.708383422 19.176386293 0 0 0
1478 0 1 -0.55 1.780509504 -50.970803288 19.089902272 0 0 0
1896 0 1 -0.55 7.261874806 -50.927170182 23.091574982 0 0 0
1018 0 1 -0.55 4.733110072 -50.951252001 15.187806669 0 0 0
1892 0 1 -0.55 4.780001543 -51.697827854 23.687802552 0 0 0
1480 0 1 -0.55 2.262852841 -51.680262438 15.69800776 0 0 0
1488 0 1 -0.55 7.729367812 -51.769620465 19.733398018 0 0 0
1887 0 1 -0.55 2.661568093 -53.985541445 20.769776086 0 0 0
1028 0 1 -0.55 8.696496805 -53.994603545 12.629008387 0 0 0
1484 0 1 -0.55 5.697499887 -54.039630502 16.673040218 0 0 0
1885 0 1 -0.55 2.355089582 -52.18194034 22.676041944 0 0 0
1483 0 1 -0.55 5.391058235 -52.275899525 18.656889024 0 0 0
1477 0 1 -0.55 1.042412691 -53.519829437 18.722946621 0 0 0
1895 0 1 -0.55 6.467103178 -53.528647459 22.72363791 0 0 0
1017 0 1 -0.55 4.021433469 -53.434270742 14.741240843 0 0 0
1021 0 1 -0.55 6.508526494 -54.149898352 14.216047238 0 0 0
1883 0 1 -0.55 0.564172787 -53.911971727 22.218477575 0 0 0
1481 0 1 -0.55 3.513260185 -54.091558157 18.202140141 0 0 0
1474 0 1 -0.55 0.099917972 -51.691031019 17.181997461 0 0 0
1893 0 1 -0.55 5.582910885 -51.580484813 21.212870844 0 0 0
1013 0 1 -0.55 3.126091432 -51.555775658 13.215154447 0 0 0
1025 0 3 1.1 8.052438077 -53.811217784 14.136109272 0 0 0
1884 0 3 1.1 2.115053667 -53.694118823 22.246302699 0 0 0
1482 0 3 1.1 5.033632441 -53.74639546 18.154936353 0 0 0
1475 0 3 1.1 0.58336126 -51.940528051 18.710703255 0 0 0
1894 0 3 1.1 6.019515824 -51.928051953 22.689528183 0 0 0
1015 0 3 1.1 3.529111012 -51.902472421 14.758131811 0 0 0
1891 0 3 1.1 3.240452499 -51.325865227 23.717198339 0 0 0
1476 0 3 1.1 0.693819789 -51.4115631 15.720463362 0 0 0
1487 0 3 1.1 6.130520849 -51.397273543 19.793171013 0 0 0
1479 0 3 1.1 2.210594239 -54.382458345 19.212263748 0 0 0
1897 0 3 1.1 7.683252426 -54.492098859 23.145652616 0 0 0
1019 0 3 1.1 5.257724757 -54.401660651 15.216154697 0 0 0
1014 0 1 -0.55 3.504484447 -49.782460147 11.305548247 0 0 0
241 0 1 -0.55 9.275715373 -49.719065948 3.506019519 0 0 0
627 0 1 -0.55 6.495054584 -49.663025293 7.164097751 0 0 0
619 0 1 -0.55 2.372141802 -45.919626719 7.205212537 0 0 0
1099 0 1 -0.55 7.691548551 -45.972634556 11.244466041 0 0 0
234 0 1 -0.55 5.357613913 -45.976433887 3.188566092 0 0 0
1094 0 1 -0.55 5.14984663 -46.731860998 11.704255679 0 0 0
230 0 1 -0.55 2.8351634 -46.776399796 3.72610745 0 0 0
629 0 1 -0.55 8.236378491 -46.54481716 7.735185933 0 0 0
622 0 1 -0.55 3.317274017 -49.018424819 8.819748721 0 0 0
242 0 2 -0.275 9.4193773 -48.9971307 0.969657755 0 0 0
236 0 1 -0.55 6.137902503 -48.770251009 4.728938449 0 0 0
1087 0 1 -0.55 2.729243908 -47.345339777 10.774135401 0 0 0
625 0 1 -0.55 5.786510122 -47.195759547 6.820843014 0 0 0
618 0 1 -0.55 1.784280764 -48.408047407 6.753867896 0 0 0
1098 0 1 -0.55 6.930584995 -48.451157041 10.796001762 0 0 0
233 0 1 -0.55 4.606191573 -48.385533929 2.702758325 0 0 0
237 0 1 -0.55 7.159095543 -49.004484244 2.31140301 0 0 0
616 0 1 -0.55 1.11302436 -49.310474777 10.257844821 0 0 0
623 0 1 -0.55 4.12474928 -49.196931068 6.250305051 0 0 0
227 0 1 -0.55 0.805477723 -46.525997072 5.154848105 0 0 0
626 0 1 -0.55 6.072925969 -46.4641359 9.260028969 0 0 0
231 0 2 -0.275 3.653584467 -46.45748032 1.199356424 0 0 0
238 0 3 1.1 8.70507289 -48.706300101 2.420409216 0 0 0
620 0 3 1.1 2.652758542 -48.874455301 10.283966605 0 0 0
624 0 3 1.1 5.628388778 -48.679640387 6.258193974 0 0 0
617 0 3 1.1 1.221981149 -46.90660323 6.623780417 0 0 0
1096 0 3 1.1 6.45578368 -46.919567487 10.799798669 0 0 0
232 0 3 1.1 4.126451917 -46.873668076 2.742779744 0 0 0
1091 0 3 1.1 3.583607308 -46.370874679 11.721277373 0 0 0
229 0 3 1.1 1.318122417 -46.420328303 3.69754309 0 0 0
628 0 3 1.1 6.635609597 -46.254090425 7.799803594 0 0 0
621 0 3 1.1 2.94585465 -49.332117878 7.294185229 0 0 0
1102 0 3 1.1 8.197134315 -49.362298568 11.240865223 0 0 0
235 0 3 1.1 5.838078271 -49.237845025 3.230898386 0 0 0
936 0 1 -0.55 0.057372293 -57.410369524 14.505682369 1 0 0
113 0 1 -0.55 0.471439119 -57.314146112 2.800615262 1 0 0
1889 0 1 -0.55 2.955998861 -49.812048815 23.398757639 0 0 0
1104 0 1 -0.55 8.864318862 -49.732867345 15.312918268 0 0 0
1486 0 1 -0.55 6.039695222 -49.830274803 19.290172534 0 0 0
1534 0 1 -0.55 1.744368264 -45.913492534 19.199366751 0 0 0
1958 0 1 -0.55 7.264570978 -46.023342853 23.160383678 0 0 0
1093 0 1 -0.55 4.686166882 -45.951097396 15.090649945 0 0 0
1954 0 1 -0.55 4.717771801 -46.652750156 23.63536192 0 0 0
1535 0 1 -0.55 2.298158675 -46.677737666 15.718958062 0 0 0
1543 0 1 -0.55 7.740950861 -46.694116959 19.65051384 0 0 0
1950 0 1 -0.55 2.806164878 -49.138416381 20.843952352 0 0 0
1103 0 1 -0.55 8.547996239 -48.97287439 12.736509049 0 0 0
1540 0 1 -0.55 5.701380918 -48.999048022 16.724630156 0 0 0
1948 0 1 -0.55 2.415191052 -47.324637681 22.710937978 0 0 0
1539 0 1 -0.55 5.34946473 -47.372871946 18.736891377 0 0 0
1533 0 1 -0.55 1.119031325 -48.43362694 18.820823314 0 0 0
1957 0 1 -0.55 6.452189695 -48.455965927 22.744589189 0 0 0
1092 0 1 -0.55 4.054937214 -48.444918992 14.851753081 0 0 0
1097 0 1 -0.55 6.471417949 -49.236660979 14.250156965 0 0 0
1946 0 1 -0.55 0.656743691 -49.231538426 22.39203681 0 0 0
1537 0 1 -0.55 3.601393493 -49.288657185 18.319198434 0 0 0
1530 0 1 -0.55 0.187448594 -46.494943927 17.243865973 0 0 0
1955 0 1 -0.55 5.599579652 -46.582733613 21.194212148 0 0 0
1088 0 1 -0.55 2.994777597 -46.617723189 13.212665775 0 0 0
1100 0 3 1.1 8.016130502 -48.805869998 14.253691444 0 0 0
1947 0 3 1.1 2.171684225 -48.884631858 22.339268387 0 0 0
1538 0 3 1.1 5.17394712 -48.868148702 18.249211252 0 0 0
1531 0 3 1.1 0.579190199 -46.941036097 18.783898101 0 0 0
1956 0 3 1.1 6.061669996 -46.947656364 22.689594522 0 0 0
1090 0 3 1.1 3.523939454 -46.905905266 14.701107965 0 0 0
1953 0 3 1.1 3.215658853 -46.315253633 23.679685834 0 0 0
1532 0 3 1.1 0.797101787 -46.271132368 15.738599154 0 0 0
1542 0 3 1.1 6.165276583 -46.371921624 19.718208439 0 0 0
1536 0 3 1.1 2.326825024 -49.421718945 19.301235464 0 0 0
1960 0 3 1.1 7.700672125 -49.405686557 23.144474131 0 0 0
1095 0 3 1.1 5.229072518 -49.411193406 15.236318693 0 0 0
1089 0 1 -0.55 3.379676831 -44.79756934 11.249637522 0 0 0
297 0 1 -0.55 9.528466858 -44.696711533 3.22955625 0 0 0
684 0 1 -0.55 6.451388725 -44.708175999 7.380539012 0 0 0
676 0 1 -0.55 2.531555104 -40.954775359 7.117352967 0 0 0
1172 0 1 -0.55 7.63558209 -40.927486232 11.263255463 0 0 0
289 0 1 -0.55 5.519215866 -40.859004793 3.126095167 0 0 0
1167 0 1 -0.55 5.211899835 -41.731286785 11.634661651 0 0 0
285 0 1 -0.55 3.031418091 -41.729647817 3.6356158 0 0 0
686 0 1 -0.55 8.338994152 -41.787605794 7.632529937 0 0 0
679 0 1 -0.55 3.470678365 -44.072113115 8.79624536 0 0 0
296 0 2 -0.275 9.362613474 -43.950623839 0.794606207 0 0 0
291 0 1 -0.55 6.272227031 -44.111703849 4.814270812 0 0 0
1160 0 1 -0.55 2.91144986 -42.29663724 10.612361016 0 0 0
682 0 1 -0.55 5.839957064 -42.24310593 6.66947793 0 0 0
675 0 1 -0.55 1.778707414 -43.381858348 6.965071337 0 0 0
1171 0 1 -0.55 7.062730506 -43.356451229 10.645684436 0 0 0
288 0 1 -0.55 4.79179582 -43.406985035 2.895905483 0 0 0
292 0 1 -0.55 7.131754904 -44.267279088 2.258615319 0 0 0
673 0 1 -0.55 1.156873212 -44.15627796 10.164682068 0 0 0
680 0 1 -0.55 4.198165525 -44.178758202 6.313764226 0 0 0
281 0 1 -0.55 0.80561099 -41.558775544 5.192663036 0 0 0
683 0 1 -0.55 6.168834019 -41.555532922 9.153379001 0 0 0
286 0 2 -0.275 3.88277602 -41.653116947 1.224529347 0 0 0
293 0 3 1.1 8.646407025 -43.770410072 2.288122321 0 0 0
677 0 3 1.1 2.768088282 -43.809722452 10.231133795 0 0 0
681 0 3 1.1 5.734758606 -43.825578272 6.28754391 0 0 0
674 0 3 1.1 1.26763209 -41.921363441 6.703194991 0 0 0