LAMMPS Description

22000  atoms
16500  bonds
15500  angles
13500  dihedrals
0  impropers

906  atom types
379  bond types
1017  angle types
800  dihedral types
6  improper types

0 50.0 xlo xhi
0 50.0 ylo yhi
0 50.0 zlo zhi

Masses

1 18.998  # 1
2 14.027  # 2
3 12.011  # 3
4 15.999  # 4
5 15.999  # 5
6 15.035  # 6
7 1.008  # 7
8 16.043  # 8
9 15.035  # 9
10 15.035  # 10
11 15.035  # 11
12 15.035  # 12
13 14.027  # 13
14 14.027  # 14
15 13.019  # 15
16 13.019  # 16
17 13.019  # 17
18 12.011  # 18
19 12.011  # 19
20 15.999  # 20
21 1.008  # 21
22 15.035  # 22
23 14.027  # 23
24 32.06  # 24
25 32.06  # 25
26 32.06  # 26
27 32.06  # 27
28 1.008  # 28
29 1.008  # 29
30 15.035  # 30
31 14.027  # 31
32 15.035  # 32
33 14.027  # 33
34 15.035  # 34
35 14.027  # 35
36 14.007  # 36
37 12.011  # 37
38 15.035  # 38
39 13.019  # 39
40 12.011  # 40
41 15.999  # 41
42 15.035  # 42
43 14.027  # 43
44 14.027  # 44
45 35.453  # 45
46 12.011  # 46
47 35.453  # 47
48 12.011  # 48
49 35.453  # 49
50 32.06  # 50
51 15.999  # 51
52 15.035  # 52
53 15.999  # 53
54 14.007  # 54
55 12.011  # 55
56 15.035  # 56
57 1.0  # 57
58 4.003  # 58
59 20.179  # 59
60 39.948  # 60
61 83.8  # 61
62 131.3  # 62
63 15.999  # 63
64 1.008  # 64
65 15.999  # 65
66 1.008  # 66
67 1e-30  # 67
68 15.999  # 68
69 1.008  # 69
70 15.999  # 70
71 1.008  # 71
72 1e-30  # 72
73 15.999  # 73
74 1.008  # 74
75 1e-30  # 75
76 15.999  # 76
77 1.008  # 77
78 14.007  # 78
79 1.008  # 79
80 12.011  # 80
81 12.011  # 81
82 12.011  # 82
83 12.011  # 83
84 12.011  # 84
85 1.008  # 85
86 12.011  # 86
87 12.011  # 87
88 12.011  # 88
89 1.008  # 89
90 12.011  # 90
91 1.008  # 91
92 12.011  # 92
93 12.011  # 93
94 12.011  # 94
95 12.011  # 95
96 15.999  # 96
97 1.008  # 97
98 1.008  # 98
99 12.011  # 99
100 12.011  # 100
101 12.011  # 101
102 12.011  # 102
103 12.011  # 103
104 15.999  # 104
105 1.008  # 105
106 18.998  # 106
107 1.008  # 107
108 12.011  # 108
109 15.999  # 109
110 1.008  # 110
111 15.999  # 111
112 1.008  # 112
113 15.999  # 113
114 1.008  # 114
115 12.011  # 115
116 12.011  # 116
117 12.011  # 117
118 1.008  # 118
119 15.999  # 119
120 12.011  # 120
121 15.999  # 121
122 15.999  # 122
123 12.011  # 123
124 12.011  # 124
125 12.011  # 125
126 12.011  # 126
127 1.008  # 127
128 15.999  # 128
129 15.999  # 129
130 1.008  # 130
131 12.011  # 131
132 1.008  # 132
133 12.011  # 133
134 1.008  # 134
135 12.011  # 135
136 1.008  # 136
137 12.011  # 137
138 1.008  # 138
139 12.011  # 139
140 12.011  # 140
141 12.011  # 141
142 32.06  # 142
143 32.06  # 143
144 32.06  # 144
145 32.06  # 145
146 1.008  # 146
147 1.008  # 147
148 12.011  # 148
149 12.011  # 149
150 12.011  # 150
151 12.011  # 151
152 12.011  # 152
153 12.011  # 153
154 12.011  # 154
155 12.011  # 155
156 12.011  # 156
157 12.011  # 157
158 12.011  # 158
159 12.011  # 159
160 12.011  # 160
161 12.011  # 161
162 12.011  # 162
163 12.011  # 163
164 32.06  # 164
165 12.011  # 165
166 12.011  # 166
167 12.011  # 167
168 35.453  # 168
169 12.011  # 169
170 12.011  # 170
171 12.011  # 171
172 12.011  # 172
173 12.011  # 173
174 12.011  # 174
175 12.011  # 175
176 12.011  # 176
177 12.011  # 177
178 15.999  # 178
179 14.007  # 179
180 14.007  # 180
181 14.007  # 181
182 1.008  # 182
183 1.008  # 183
184 12.011  # 184
185 12.011  # 185
186 12.011  # 186
187 12.011  # 187
188 12.011  # 188
189 12.011  # 189
190 15.999  # 190
191 14.007  # 191
192 1.008  # 192
193 14.007  # 193
194 12.011  # 194
195 15.999  # 195
196 1.008  # 196
197 1.008  # 197
198 12.011  # 198
199 12.011  # 199
200 12.011  # 200
201 12.011  # 201
202 12.011  # 202
203 12.011  # 203
204 14.007  # 204
205 12.011  # 205
206 35.453  # 206
207 14.007  # 207
208 12.011  # 208
209 12.011  # 209
210 15.999  # 210
211 15.999  # 211
212 1.008  # 212
213 12.011  # 213
214 15.999  # 214
215 12.011  # 215
216 12.011  # 216
217 12.011  # 217
218 12.011  # 218
219 12.011  # 219
220 15.999  # 220
221 1.008  # 221
222 12.011  # 222
223 15.999  # 223
224 1.008  # 224
225 12.011  # 225
226 12.011  # 226
227 12.011  # 227
228 12.011  # 228
229 14.007  # 229
230 14.007  # 230
231 14.007  # 231
232 1.008  # 232
233 1.008  # 233
234 12.011  # 234
235 12.011  # 235
236 12.011  # 236
237 12.011  # 237
238 12.011  # 238
239 12.011  # 239
240 12.011  # 240
241 12.011  # 241
242 12.011  # 242
243 14.007  # 243
244 1.008  # 244
245 12.011  # 245
246 14.007  # 246
247 1.008  # 247
248 12.011  # 248
249 12.011  # 249
250 12.011  # 250
251 12.011  # 251
252 14.007  # 252
253 1.008  # 253
254 14.007  # 254
255 12.011  # 255
256 14.007  # 256
257 1.008  # 257
258 12.011  # 258
259 1.008  # 259
260 12.011  # 260
261 1.008  # 261
262 14.007  # 262
263 12.011  # 263
264 14.007  # 264
265 12.011  # 265
266 12.011  # 266
267 12.011  # 267
268 1.008  # 268
269 15.999  # 269
270 1.008  # 270
271 15.999  # 271
272 1.008  # 272
273 1.008  # 273
274 12.011  # 274
275 1.008  # 275
276 14.007  # 276
277 12.011  # 277
278 14.007  # 278
279 12.011  # 279
280 12.011  # 280
281 12.011  # 281
282 1.008  # 282
283 15.999  # 283
284 14.007  # 284
285 1.008  # 285
286 1.008  # 286
287 1.008  # 287
288 1.008  # 288
289 14.007  # 289
290 12.011  # 290
291 14.007  # 291
292 12.011  # 292
293 12.011  # 293
294 12.011  # 294
295 14.007  # 295
296 12.011  # 296
297 14.007  # 297
298 1.008  # 298
299 14.007  # 299
300 1.008  # 300
301 1.008  # 301
302 1.008  # 302
303 1.008  # 303
304 14.007  # 304
305 12.011  # 305
306 14.007  # 306
307 12.011  # 307
308 12.011  # 308
309 12.011  # 309
310 1.008  # 310
311 14.007  # 311
312 1.008  # 312
313 15.999  # 313
314 12.011  # 314
315 1.008  # 315
316 12.011  # 316
317 1.008  # 317
318 12.011  # 318
319 1.008  # 319
320 14.007  # 320
321 12.011  # 321
322 14.007  # 322
323 12.011  # 323
324 12.011  # 324
325 12.011  # 325
326 1.008  # 326
327 15.999  # 327
328 1.008  # 328
329 14.007  # 329
330 1.008  # 330
331 1.008  # 331
332 1.008  # 332
333 1.008  # 333
334 12.011  # 334
335 1.008  # 335
336 30.974  # 336
337 15.999  # 337
338 15.999  # 338
339 15.035  # 339
340 12.011  # 340
341 35.453  # 341
342 12.011  # 342
343 18.998  # 343
344 35.453  # 344
345 79.904  # 345
346 126.905  # 346
347 18.039  # 347
348 6.941  # 348
349 22.99  # 349
350 39.098  # 350
351 85.468  # 351
352 132.905  # 352
353 24.305  # 353
354 40.08  # 354
355 87.62  # 355
356 137.33  # 356
357 12.011  # 357
358 1.008  # 358
359 32.06  # 359
360 12.011  # 360
361 1.008  # 361
362 15.999  # 362
363 12.011  # 363
364 1.008  # 364
365 12.011  # 365
366 14.007  # 366
367 12.011  # 367
368 1.008  # 368
369 14.007  # 369
370 1.008  # 370
371 12.011  # 371
372 1.008  # 372
373 12.011  # 373
374 1.008  # 374
375 1e-30  # 375
376 15.999  # 376
377 1.008  # 377
378 238.029  # 378
379 15.999  # 379
380 15.999  # 380
381 30.974  # 381
382 15.999  # 382
383 15.999  # 383
384 12.011  # 384
385 1.008  # 385
386 30.974  # 386
387 15.999  # 387
388 15.999  # 388
389 12.011  # 389
390 1.008  # 390
391 30.974  # 391
392 15.999  # 392
393 15.999  # 393
394 12.011  # 394
395 1.008  # 395
396 12.011  # 396
397 1.008  # 397
398 12.011  # 398
399 12.011  # 399
400 1.008  # 400
401 12.011  # 401
402 12.011  # 402
403 1.008  # 403
404 12.011  # 404
405 12.011  # 405
406 12.011  # 406
407 15.999  # 407
408 15.999  # 408
409 12.011  # 409
410 1.008  # 410
411 12.011  # 411
412 12.011  # 412
413 12.011  # 413
414 15.999  # 414
415 32.06  # 415
416 15.999  # 416
417 12.011  # 417
418 1.008  # 418
419 14.007  # 419
420 1.008  # 420
421 14.007  # 421
422 1.008  # 422
423 12.011  # 423
424 1.008  # 424
425 12.011  # 425
426 1.008  # 426
427 12.011  # 427
428 1.008  # 428
429 12.011  # 429
430 12.011  # 430
431 12.011  # 431
432 12.011  # 432
433 12.011  # 433
434 32.06  # 434
435 15.999  # 435
436 32.06  # 436
437 32.06  # 437
438 15.999  # 438
439 12.011  # 439
440 12.011  # 440
441 12.011  # 441
442 12.011  # 442
443 12.011  # 443
444 14.007  # 444
445 1.008  # 445
446 12.011  # 446
447 12.011  # 447
448 12.011  # 448
449 12.011  # 449
450 12.011  # 450
451 12.011  # 451
452 14.007  # 452
453 14.007  # 453
454 1.008  # 454
455 12.011  # 455
456 12.011  # 456
457 12.011  # 457
458 12.011  # 458
459 12.011  # 459
460 12.011  # 460
461 14.007  # 461
462 12.011  # 462
463 12.011  # 463
464 12.011  # 464
465 1.008  # 465
466 1.008  # 466
467 1.008  # 467
468 14.007  # 468
469 12.011  # 469
470 1.008  # 470
471 14.007  # 471
472 12.011  # 472
473 12.011  # 473
474 12.011  # 474
475 1.008  # 475
476 1.008  # 476
477 1.008  # 477
478 14.007  # 478
479 12.011  # 479
480 12.011  # 480
481 1.008  # 481
482 1.008  # 482
483 14.007  # 483
484 12.011  # 484
485 12.011  # 485
486 1.008  # 486
487 1.008  # 487
488 1.008  # 488
489 14.007  # 489
490 14.007  # 490
491 12.011  # 491
492 12.011  # 492
493 12.011  # 493
494 1.008  # 494
495 1.008  # 495
496 1.008  # 496
497 1.008  # 497
498 14.007  # 498
499 12.011  # 499
500 14.007  # 500
501 12.011  # 501
502 12.011  # 502
503 1.008  # 503
504 1.008  # 504
505 1.008  # 505
506 1.008  # 506
507 15.999  # 507
508 12.011  # 508
509 12.011  # 509
510 1.008  # 510
511 1.008  # 511
512 15.999  # 512
513 12.011  # 513
514 14.007  # 514
515 12.011  # 515
516 12.011  # 516
517 1.008  # 517
518 1.008  # 518
519 1.008  # 519
520 15.999  # 520
521 14.007  # 521
522 12.011  # 522
523 12.011  # 523
524 12.011  # 524
525 1.008  # 525
526 1.008  # 526
527 1.008  # 527
528 14.007  # 528
529 12.011  # 529
530 12.011  # 530
531 12.011  # 531
532 12.011  # 532
533 12.011  # 533
534 12.011  # 534
535 12.011  # 535
536 12.011  # 536
537 1.008  # 537
538 1.008  # 538
539 1.008  # 539
540 1.008  # 540
541 1.008  # 541
542 1.008  # 542
543 1.008  # 543
544 14.007  # 544
545 12.011  # 545
546 12.011  # 546
547 12.011  # 547
548 12.011  # 548
549 12.011  # 549
550 12.011  # 550
551 12.011  # 551
552 12.011  # 552
553 12.011  # 553
554 1.008  # 554
555 1.008  # 555
556 1.008  # 556
557 1.008  # 557
558 1.008  # 558
559 1.008  # 559
560 1.008  # 560
561 14.007  # 561
562 12.011  # 562
563 14.007  # 563
564 12.011  # 564
565 12.011  # 565
566 12.011  # 566
567 14.007  # 567
568 12.011  # 568
569 14.007  # 569
570 1.008  # 570
571 1.008  # 571
572 1.008  # 572
573 1.008  # 573
574 32.06  # 574
575 12.011  # 575
576 14.007  # 576
577 12.011  # 577
578 12.011  # 578
579 1.008  # 579
580 1.008  # 580
581 1.008  # 581
582 14.007  # 582
583 12.011  # 583
584 1.008  # 584
585 12.011  # 585
586 12.011  # 586
587 14.007  # 587
588 12.011  # 588
589 12.011  # 589
590 12.011  # 590
591 12.011  # 591
592 12.011  # 592
593 12.011  # 593
594 1.008  # 594
595 1.008  # 595
596 1.008  # 596
597 1.008  # 597
598 14.007  # 598
599 12.011  # 599
600 14.007  # 600
601 12.011  # 601
602 12.011  # 602
603 12.011  # 603
604 1.008  # 604
605 1.008  # 605
606 1.008  # 606
607 1.008  # 607
608 12.011  # 608
609 12.011  # 609
610 12.011  # 610
611 12.011  # 611
612 12.011  # 612
613 12.011  # 613
614 12.011  # 614
615 12.011  # 615
616 12.011  # 616
617 12.011  # 617
618 12.011  # 618
619 12.011  # 619
620 12.011  # 620
621 12.011  # 621
622 12.011  # 622
623 32.06  # 623
624 1.008  # 624
625 12.011  # 625
626 12.011  # 626
627 14.007  # 627
628 12.011  # 628
629 12.011  # 629
630 12.011  # 630
631 12.011  # 631
632 12.011  # 632
633 12.011  # 633
634 12.011  # 634
635 12.011  # 635
636 12.011  # 636
637 32.06  # 637
638 227.0  # 638
639 232.038  # 639
640 243.0  # 640
641 12.011  # 641
642 12.011  # 642
643 1.008  # 643
644 138.906  # 644
645 144.24  # 645
646 151.96  # 646
647 157.25  # 647
648 173.04  # 648
649 12.011  # 649
650 35.453  # 650
651 1.008  # 651
652 12.011  # 652
653 12.011  # 653
654 12.011  # 654
655 12.011  # 655
656 1.008  # 656
657 12.011  # 657
658 1.008  # 658
659 12.011  # 659
660 18.998  # 660
661 12.011  # 661
662 18.998  # 662
663 79.904  # 663
664 14.027  # 664
665 12.011  # 665
666 12.011  # 666
667 18.998  # 667
668 12.011  # 668
669 18.998  # 669
670 12.011  # 670
671 79.904  # 671
672 12.011  # 672
673 126.905  # 673
674 12.011  # 674
675 32.06  # 675
676 12.011  # 676
677 12.011  # 677
678 12.011  # 678
679 12.011  # 679
680 12.011  # 680
681 1.008  # 681
682 1.008  # 682
683 12.011  # 683
684 14.007  # 684
685 1.008  # 685
686 1.008  # 686
687 1.008  # 687
688 12.011  # 688
689 12.011  # 689
690 14.007  # 690
691 14.007  # 691
692 14.007  # 692
693 12.011  # 693
694 14.007  # 694
695 12.011  # 695
696 12.011  # 696
697 12.011  # 697
698 12.011  # 698
699 12.011  # 699
700 1.008  # 700
701 14.007  # 701
702 15.999  # 702
703 12.011  # 703
704 1.008  # 704
705 12.011  # 705
706 12.011  # 706
707 12.011  # 707
708 14.007  # 708
709 12.011  # 709
710 12.011  # 710
711 14.007  # 711
712 15.999  # 712
713 12.011  # 713
714 15.999  # 714
715 12.011  # 715
716 12.011  # 716
717 12.011  # 717
718 1.008  # 718
719 1.008  # 719
720 1.008  # 720
721 15.999  # 721
722 30.974  # 722
723 12.011  # 723
724 12.011  # 724
725 1.008  # 725
726 30.974  # 726
727 18.998  # 727
728 14.007  # 728
729 15.999  # 729
730 14.007  # 730
731 14.007  # 731
732 14.007  # 732
733 12.011  # 733
734 12.011  # 734
735 12.011  # 735
736 12.011  # 736
737 12.011  # 737
738 12.011  # 738
739 1.008  # 739
740 1.008  # 740
741 1.008  # 741
742 12.011  # 742
743 12.011  # 743
744 12.011  # 744
745 12.011  # 745
746 12.011  # 746
747 12.011  # 747
748 12.011  # 748
749 12.011  # 749
750 12.011  # 750
751 12.011  # 751
752 12.011  # 752
753 12.011  # 753
754 12.011  # 754
755 12.011  # 755
756 1.008  # 756
757 12.011  # 757
758 12.011  # 758
759 12.011  # 759
760 1.008  # 760
761 12.011  # 761
762 12.011  # 762
763 12.011  # 763
764 15.999  # 764
765 1.008  # 765
766 14.007  # 766
767 14.007  # 767
768 14.007  # 768
769 12.011  # 769
770 14.007  # 770
771 1.008  # 771
772 12.011  # 772
773 12.011  # 773
774 12.011  # 774
775 12.011  # 775
776 12.011  # 776
777 12.011  # 777
778 12.011  # 778
779 12.011  # 779
780 1.008  # 780
781 12.011  # 781
782 12.011  # 782
783 14.007  # 783
784 15.999  # 784
785 1.008  # 785
786 18.998  # 786
787 12.011  # 787
788 1.008  # 788
789 12.011  # 789
790 12.011  # 790
791 12.011  # 791
792 12.011  # 792
793 12.011  # 793
794 12.011  # 794
795 18.998  # 795
796 12.011  # 796
797 1.008  # 797
798 12.011  # 798
799 12.011  # 799
800 35.453  # 800
801 12.011  # 801
802 1.008  # 802
803 12.011  # 803
804 12.011  # 804
805 79.904  # 805
806 12.011  # 806
807 1.008  # 807
808 12.011  # 808
809 12.011  # 809
810 18.998  # 810
811 35.453  # 811
812 79.904  # 812
813 12.011  # 813
814 15.999  # 814
815 12.011  # 815
816 18.998  # 816
817 14.007  # 817
818 12.011  # 818
819 12.011  # 819
820 12.011  # 820
821 12.011  # 821
822 15.999  # 822
823 14.007  # 823
824 1.008  # 824
825 15.999  # 825
826 1.008  # 826
827 12.011  # 827
828 12.011  # 828
829 12.011  # 829
830 12.011  # 830
831 12.011  # 831
832 12.011  # 832
833 12.011  # 833
834 1e-30  # 834
835 12.011  # 835
836 12.011  # 836
837 12.011  # 837
838 126.905  # 838
839 1.008  # 839
840 14.007  # 840
841 12.011  # 841
842 12.011  # 842
843 14.007  # 843
844 12.011  # 844
845 12.011  # 845
846 15.999  # 846
847 14.007  # 847
848 12.011  # 848
849 12.011  # 849
850 12.011  # 850
851 12.011  # 851
852 1.008  # 852
853 12.011  # 853
854 15.999  # 854
855 1.008  # 855
856 12.011  # 856
857 12.011  # 857
858 12.011  # 858
859 12.011  # 859
860 12.011  # 860
861 12.011  # 861
862 12.011  # 862
863 12.011  # 863
864 12.011  # 864
865 12.011  # 865
866 28.086  # 866
867 28.086  # 867
868 28.086  # 868
869 28.086  # 869
870 1.008  # 870
871 12.011  # 871
872 12.011  # 872
873 12.011  # 873
874 12.011  # 874
875 18.998  # 875
876 35.453  # 876
877 79.904  # 877
878 126.905  # 878
879 6.941  # 879
880 22.99  # 880
881 39.098  # 881
882 85.468  # 882
883 132.905  # 883
884 24.305  # 884
885 40.08  # 885
886 87.62  # 886
887 137.33  # 887
888 12.011  # 888
889 12.011  # 889
890 12.011  # 890
891 12.011  # 891
892 1.008  # 892
893 14.007  # 893
894 12.011  # 894
895 14.007  # 895
896 12.011  # 896
897 12.011  # 897
898 12.011  # 898
899 1.008  # 899
900 12.011  # 900
901 12.011  # 901
902 12.011  # 902
903 12.011  # 903
904 12.011  # 904
905 15.999  # 905
906 12.011  # 906

Atoms

1 1 99 0 20.649 1.055 43.248
2 1 96 0 20.742 -0.000 42.292
3 1 100 0 19.308 1.773 43.117
4 1 96 0 19.169 2.183 41.747
5 1 99 0 18.127 0.876 43.503
6 1 96 0 16.910 1.621 43.356
7 1 85 0 21.474 1.746 43.049
8 1 85 0 20.783 0.632 44.250
9 1 97 0 20.593 0.443 41.422
10 1 85 0 19.304 2.676 43.732
11 1 97 0 18.239 2.005 41.495
12 1 85 0 18.199 0.533 44.544
13 1 85 0 18.060 0.011 42.847
14 1 97 0 16.949 2.387 43.960
15 2 99 0 6.692 46.058 26.287
16 2 96 0 6.138 46.443 25.029
17 2 100 0 7.534 47.193 26.865
18 2 96 0 8.498 47.568 25.867
19 2 99 0 6.687 48.414 27.240
20 2 96 0 7.548 49.429 27.774
21 2 85 0 7.312 45.174 26.110
22 2 85 0 5.873 45.782 26.960
23 2 97 0 6.920 46.696 24.483
24 2 85 0 8.086 46.842 27.740
25 2 97 0 8.543 48.546 25.875
26 2 85 0 5.931 48.168 27.996
27 2 85 0 6.194 48.833 26.366
28 2 97 0 7.977 49.072 28.575
29 3 99 0 13.242 32.849 41.459
30 3 96 0 12.425 32.925 42.626
31 3 100 0 13.015 34.070 40.572
32 3 96 0 11.603 34.164 40.318
33 3 99 0 13.502 35.366 41.228
34 3 96 0 13.255 36.461 40.334
35 3 85 0 12.963 31.933 40.928
36 3 85 0 14.290 32.767 41.769
37 3 97 0 11.506 33.017 42.278
38 3 85 0 13.512 33.932 39.609
39 3 97 0 11.369 35.113 40.386
40 3 85 0 14.578 35.332 41.446
41 3 85 0 12.959 35.569 42.148
42 3 97 0 13.760 36.301 39.513
43 4 99 0 17.007 27.355 40.952
44 4 96 0 15.684 27.322 41.488
45 4 100 0 17.210 28.619 40.120
46 4 96 0 16.159 28.665 39.141
47 4 99 0 17.170 29.891 40.972
48 4 96 0 17.369 31.027 40.120
49 4 85 0 17.126 26.463 40.330
50 4 85 0 17.721 27.301 41.781
51 4 97 0 15.097 27.395 40.697
52 4 85 0 18.158 28.563 39.580
53 4 97 0 15.859 29.597 39.096
54 4 85 0 17.954 29.891 41.740
55 4 85 0 16.201 30.011 41.452
56 4 97 0 18.248 30.942 39.702
57 5 99 0 30.171 14.459 23.860
58 5 96 0 31.389 13.972 24.421
59 5 100 0 30.146 15.986 23.890
60 5 96 0 30.396 16.395 25.245
61 5 99 0 31.202 16.604 22.968
62 5 96 0 31.113 18.033 23.052
63 5 85 0 29.352 14.051 24.460
64 5 85 0 30.079 14.076 22.837
65 5 97 0 31.419 14.367 25.325
66 5 85 0 29.154 16.350 23.614
67 5 97 0 31.005 17.161 25.198
68 5 85 0 31.052 16.308 21.921
69 5 85 0 32.207 16.322 23.277
70 5 97 0 30.223 18.299 22.752
71 6 99 0 49.038 15.843 26.612
72 6 96 0 49.306 15.378 27.935
73 6 100 0 48.294 14.774 25.815
74 6 96 0 49.068 13.565 25.886
75 6 99 0 46.887 14.512 26.362
76 6 96 0 46.259 13.502 25.561
77 6 85 0 50.002 16.067 26.146
78 6 85 0 48.458 16.771 26.679
79 6 97 0 49.808 14.538 27.803
80 6 85 0 48.235 15.064 24.763
81 6 97 0 48.431 12.832 26.017
82 6 85 0 46.264 15.415 26.333
83 6 85 0 46.926 14.139 27.383
84 6 97 0 46.195 13.837 24.646
85 7 99 0 14.905 42.128 16.232
86 7 96 0 15.976 43.068 16.294
87 7 100 0 14.470 41.915 14.784
88 7 96 0 14.176 43.207 14.226
89 7 99 0 15.555 41.232 13.944
90 7 96 0 15.070 41.067 12.605
91 7 85 0 14.079 42.538 16.823
92 7 85 0 15.234 41.191 16.695
93 7 97 0 15.623 43.874 15.846
94 7 85 0 13.550 41.326 14.751
95 7 97 0 14.546 43.210 13.319
96 7 85 0 15.815 40.243 14.343
97 7 85 0 16.454 41.842 13.892
98 7 97 0 14.277 40.498 12.637
99 8 99 0 13.937 30.058 1.007
100 8 96 0 13.314 31.045 1.827
101 8 100 0 15.390 30.436 0.733
102 8 96 0 15.395 31.767 0.188
103 8 99 0 16.251 30.401 1.999
104 8 96 0 17.596 30.765 1.658
105 8 85 0 13.371 30.010 0.072
106 8 85 0 13.863 29.087 1.510
107 8 97 0 13.434 31.889 1.330
108 8 85 0 15.815 29.771 -0.023
109 8 97 0 16.145 32.238 0.608
110 8 85 0 16.268 29.401 2.452
111 8 85 0 15.897 31.119 2.735
112 8 97 0 17.933 30.111 1.016
113 9 99 0 27.239 0.856 0.726
114 9 96 0 27.388 2.081 0.010
115 9 100 0 25.947 0.870 1.538
116 9 96 0 25.964 2.052 2.356
117 9 99 0 24.699 0.884 0.649
118 9 96 0 23.533 0.895 1.484
119 9 85 0 28.106 0.759 1.387
120 9 85 0 27.254 0.027 0.008
121 9 97 0 27.346 2.779 0.706
122 9 85 0 25.915 0.008 2.208
123 9 97 0 25.058 2.425 2.328
124 9 85 0 24.652 -0.000 -0.000
125 9 85 0 24.666 1.780 0.032
126 9 97 0 23.540 0.082 2.024
127 10 99 0 30.009 31.545 29.720
128 10 96 0 28.793 31.239 30.400
129 10 100 0 30.882 32.456 30.580
130 10 96 0 30.088 33.597 30.944
131 10 99 0 31.383 31.757 31.848
132 10 96 0 32.193 32.675 32.595
133 10 85 0 29.740 32.044 28.784
134 10 85 0 30.522 30.606 29.481
135 10 97 0 28.396 32.120 30.603
136 10 85 0 31.732 32.820 29.997
137 10 97 0 30.286 33.786 31.885
138 10 85 0 31.989 30.872 31.613
139 10 85 0 30.553 31.461 32.486
140 10 97 0 32.955 32.928 32.040
141 11 99 0 22.434 32.323 4.763
142 11 96 0 21.431 33.205 4.258
143 11 100 0 23.814 32.966 4.644
144 11 96 0 23.990 33.362 3.274
145 11 99 0 23.966 34.191 5.552
146 11 96 0 25.283 34.733 5.384
147 11 85 0 22.387 31.405 4.169
148 11 85 0 22.192 32.079 5.804
149 11 97 0 21.718 33.399 3.333
150 11 85 0 24.590 32.234 4.877
151 11 97 0 24.415 34.244 3.290
152 11 85 0 23.830 33.932 6.611
153 11 85 0 23.257 34.971 5.282
154 11 97 0 25.928 34.049 5.648
155 12 99 0 40.615 40.083 37.478
156 12 96 0 41.097 38.742 37.560
157 12 100 0 39.616 40.356 38.600
158 12 96 0 38.600 39.342 38.531
159 12 99 0 40.272 40.327 39.985
160 12 96 0 39.272 40.594 40.978
161 12 85 0 40.134 40.195 36.502
162 12 85 0 41.471 40.766 37.527
163 12 97 0 40.282 38.186 37.532
164 12 85 0 39.128 41.321 38.441
165 12 97 0 38.409 39.074 39.454
166 12 85 0 41.062 41.084 40.077
167 12 85 0 40.691 39.347 40.200
168 12 97 0 38.906 41.483 40.809
169 13 99 0 18.651 32.161 48.886
170 13 96 0 19.474 32.632 49.952
171 13 100 0 18.950 32.935 47.604
172 13 96 0 18.812 34.335 47.903
173 13 99 0 20.361 32.664 47.074
174 13 96 0 20.560 33.424 45.873
175 13 85 0 17.611 32.310 49.189
176 13 85 0 18.827 31.087 48.756
177 13 97 0 19.284 33.600 50.001
178 13 85 0 18.211 32.690 46.837
179 13 97 0 19.552 34.791 47.451
180 13 85 0 20.511 31.602 46.840
181 13 85 0 21.117 32.981 47.789
182 13 97 0 19.902 33.128 45.215
183 14 99 0 17.446 1.245 15.655
184 14 96 0 18.517 0.711 14.877
185 14 100 0 16.991 2.584 15.080
186 14 96 0 18.150 3.429 14.984
187 14 99 0 16.350 2.438 13.696
188 14 96 0 15.951 3.734 13.230
189 14 85 0 17.819 1.373 16.675
190 14 85 0 16.628 0.516 15.671
191 14 97 0 19.205 1.419 14.887
192 14 85 0 16.290 3.067 15.765
193 14 97 0 18.082 3.900 14.127
194 14 85 0 15.463 1.791 13.725
195 14 85 0 17.060 2.037 12.976
196 14 97 0 15.293 4.092 13.857
197 15 99 0 19.454 27.954 6.312
198 15 96 0 18.510 27.988 7.381
199 15 100 0 19.449 29.282 5.558
200 15 96 0 18.093 29.548 5.161
201 15 99 0 19.965 30.441 6.415
202 15 96 0 19.930 31.646 5.637
203 15 85 0 19.162 27.135 5.648
204 15 85 0 20.444 27.731 6.727
205 15 97 0 17.652 28.212 6.946
206 15 85 0 20.047 29.198 4.647
207 15 97 0 17.939 30.503 5.314
208 15 85 0 20.998 30.273 6.747
209 15 85 0 19.333 30.598 7.286
210 15 97 0 20.516 31.525 4.865
211 16 99 0 41.634 18.058 38.211
212 16 96 0 41.913 19.144 37.327
213 16 100 0 42.933 17.393 38.659
214 16 96 0 43.668 17.038 37.476
215 16 99 0 43.789 18.316 39.533
216 16 96 0 44.985 17.619 39.912
217 16 85 0 41.009 17.346 37.663
218 16 85 0 41.063 18.440 39.064
219 16 97 0 42.442 18.738 36.599
220 16 85 0 42.714 16.469 39.199
221 16 97 0 44.606 17.257 37.653
222 16 85 0 43.260 18.618 40.446
223 16 85 0 44.092 19.206 38.985
224 16 97 0 44.726 16.831 40.426
225 17 99 0 7.382 19.564 31.734
226 17 96 0 7.596 19.491 33.143
227 17 100 0 6.602 18.343 31.253
228 17 96 0 7.312 17.174 31.698
229 17 99 0 5.172 18.310 31.801
230 17 96 0 4.510 17.139 31.304
231 17 85 0 8.366 19.602 31.258
232 17 85 0 6.849 20.495 31.509
233 17 97 0 8.057 18.629 33.277
234 17 85 0 6.582 18.317 30.161
235 17 97 0 6.635 16.539 32.011
236 17 85 0 4.597 19.192 31.490
237 17 85 0 5.169 18.249 32.887
238 17 97 0 4.484 17.197 30.329
239 18 99 0 13.580 22.407 0.913
240 18 96 0 12.971 23.631 0.505
241 18 100 0 12.587 21.557 1.702
242 18 96 0 12.081 22.369 2.775
243 18 99 0 11.420 21.071 0.837
244 18 96 0 10.537 20.283 1.648
245 18 85 0 14.442 22.665 1.536
246 18 85 0 13.939 21.880 0.021
247 18 97 0 12.655 24.040 1.346
248 18 85 0 13.098 20.702 2.150
249 18 97 0 11.120 22.190 2.832
250 18 85 0 11.765 20.452 -0.002
251 18 85 0 10.844 21.908 0.448
252 18 97 0 11.038 19.514 1.982
253 19 99 0 25.177 48.084 6.600
254 19 96 0 24.577 49.248 7.168
255 19 100 0 26.698 48.167 6.706
256 19 96 0 27.105 49.411 6.111
257 19 99 0 27.186 48.113 8.157
258 19 96 0 28.618 48.194 8.169
259 19 85 0 24.868 48.039 5.552
260 19 85 0 24.786 47.201 7.118
261 19 97 0 24.984 50.000 6.676
262 19 85 0 27.158 47.362 6.129
263 19 97 0 27.803 49.783 6.689
264 19 85 0 26.888 47.179 8.652
265 19 85 0 26.807 48.956 8.730
266 19 97 0 28.969 47.427 7.678
267 20 99 0 18.597 29.608 12.730
268 20 96 0 19.759 28.896 12.305
269 20 100 0 17.449 28.638 12.997
270 20 96 0 17.273 27.841 11.814
271 20 99 0 17.728 27.721 14.192
272 20 96 0 16.606 26.845 14.377
273 20 85 0 18.332 30.303 11.927
274 20 85 0 18.850 30.188 13.625
275 20 97 0 19.459 28.384 11.516
276 20 85 0 16.522 29.191 13.162
277 20 97 0 17.115 26.922 12.116
278 20 85 0 17.877 28.292 15.118
279 20 85 0 18.601 27.097 14.014
280 20 97 0 15.821 27.395 14.564
281 21 99 0 46.495 39.000 30.549
282 21 96 0 46.634 38.267 29.332
283 21 100 0 47.488 38.490 31.590
284 21 96 0 47.296 37.071 31.713
285 21 99 0 48.942 38.776 31.199
286 21 96 0 49.807 38.270 32.225
287 21 85 0 45.468 38.857 30.897
288 21 85 0 46.647 40.064 30.335
289 21 97 0 46.507 37.324 29.597
290 21 85 0 47.272 38.936 32.564
291 21 97 0 48.189 36.672 31.773
292 21 85 0 49.129 39.852 31.087
293 21 85 0 49.206 38.270 30.273
294 21 97 0 49.595 38.736 33.057
295 22 99 0 11.472 1.149 38.215
296 22 96 0 12.659 1.894 37.944
297 22 100 0 11.449 0.703 39.675
298 22 96 0 12.677 -0.000 39.931
299 22 99 0 11.325 1.883 40.644
300 22 96 0 11.309 1.381 41.988
301 22 85 0 11.475 0.281 37.549
302 22 85 0 10.605 1.774 37.972
303 22 97 0 13.394 1.287 38.201
304 22 85 0 10.629 0.000 39.839
305 22 97 0 12.986 0.290 40.815
306 22 85 0 10.402 2.452 40.476
307 22 85 0 12.178 2.553 40.558
308 22 97 0 10.532 0.797 42.084
309 23 99 0 43.857 0.883 15.630
310 23 96 0 43.484 2.175 15.154
311 23 100 0 44.023 0.905 17.148
312 23 96 0 44.948 1.959 17.466
313 23 99 0 42.698 1.153 17.876
314 23 96 0 42.938 1.157 19.290
315 23 85 0 44.802 0.619 15.146
316 23 85 0 43.092 0.161 15.320
317 23 97 0 44.197 2.773 15.482
318 23 85 0 44.465 -0.034 17.491
319 23 97 0 44.592 2.413 18.258
320 23 85 0 41.959 0.372 17.652
321 23 85 0 42.281 2.123 17.614
322 23 97 0 43.289 0.281 19.540
323 24 99 0 43.651 8.026 32.105
324 24 96 0 43.869 9.260 31.422
325 24 100 0 44.917 7.600 32.846
326 24 96 0 45.991 7.583 31.892
327 24 99 0 45.268 8.552 33.993
328 24 96 0 46.462 8.083 34.636
329 24 85 0 43.381 7.281 31.350
330 24 85 0 42.806 8.150 32.791
331 24 97 0 44.648 9.085 30.841
332 24 85 0 44.802 6.583 33.229
333 24 97 0 46.770 7.972 32.341
334 24 85 0 44.467 8.600 34.742
335 24 85 0 45.471 9.555 33.623
336 24 97 0 46.283 7.193 34.995
337 25 99 0 38.848 2.231 4.441
338 25 96 0 38.756 1.189 3.470
339 25 100 0 38.850 1.643 5.850
340 25 96 0 37.690 0.804 5.970
341 25 99 0 40.109 0.817 6.135
342 25 96 0 40.034 0.304 7.473
343 25 85 0 37.981 2.883 4.300
344 25 85 0 39.757 2.811 4.246
345 25 97 0 37.935 0.698 3.714
346 25 85 0 38.755 2.442 6.590
347 25 97 0 37.974 0.000 6.453
348 25 85 0 41.021 1.421 6.046
349 25 85 0 40.179 -0.036 5.464
350 25 97 0 39.997 1.063 8.087
351 26 99 0 31.243 30.759 42.922
352 26 96 0 30.847 32.064 43.341
353 26 100 0 32.299 30.195 43.870
354 26 96 0 33.366 31.156 43.949
355 26 99 0 31.743 29.934 45.273
356 26 96 0 32.791 29.407 46.097
357 26 85 0 31.649 30.853 41.909
358 26 85 0 30.354 30.119 42.884
359 26 97 0 31.690 32.578 43.373
360 26 85 0 32.718 29.273 43.459
361 26 97 0 33.635 31.197 44.890
362 26 85 0 30.918 29.210 45.255
363 26 85 0 31.397 30.856 45.736
364 26 97 0 33.091 28.565 45.704
365 27 99 0 42.039 36.823 40.978
366 27 96 0 40.934 36.560 41.842
367 27 100 0 42.366 35.587 40.144
368 27 96 0 42.556 34.490 41.053
369 27 99 0 41.250 35.241 39.153
370 27 96 0 41.633 34.075 38.410
371 27 85 0 42.889 37.093 41.612
372 27 85 0 41.790 37.682 40.344
373 27 97 0 41.214 35.771 42.365
374 27 85 0 43.306 35.735 39.607
375 27 97 0 42.115 33.713 40.649
376 27 85 0 41.067 36.059 38.444
377 27 85 0 40.323 35.006 39.671
378 27 97 0 42.452 34.284 37.920
379 28 99 0 38.863 30.706 34.789
380 28 96 0 38.258 29.515 35.293
381 28 100 0 39.104 30.583 33.286
382 28 96 0 39.860 29.380 33.067
383 28 99 0 37.797 30.517 32.490
384 28 96 0 38.109 30.405 31.094
385 28 85 0 39.811 30.837 35.320
386 28 85 0 38.211 31.555 35.024
387 28 97 0 38.881 28.794 35.032
388 28 85 0 39.711 31.421 32.935
389 28 97 0 39.478 28.951 32.273
390 28 85 0 37.184 31.416 32.637
391 28 85 0 37.214 29.640 32.764
392 28 97 0 38.611 31.200 30.831
393 29 99 0 32.595 38.701 41.713
394 29 96 0 32.575 39.998 42.308
395 29 100 0 32.558 37.622 42.793
396 29 96 0 33.636 37.887 43.706
397 29 99 0 31.232 37.611 43.560
398 29 96 0 31.277 36.573 44.550
399 29 85 0 33.518 38.627 41.130
400 29 85 0 31.742 38.616 41.031
401 29 97 0 33.350 40.000 42.920
402 29 85 0 32.738 36.640 42.349
403 29 97 0 33.284 37.732 44.607
404 29 85 0 30.379 37.419 42.896
405 29 85 0 31.072 38.551 44.083
406 29 97 0 31.394 35.720 44.089
407 30 99 0 24.254 7.036 28.615
408 30 96 0 25.259 6.028 28.525
409 30 100 0 22.864 6.405 28.576
410 30 96 0 22.796 5.584 27.398
411 30 99 0 22.579 5.547 29.813
412 30 96 0 21.261 4.994 29.701
413 30 85 0 24.392 7.709 27.763
414 30 85 0 24.411 7.606 29.538
415 30 97 0 25.049 5.544 27.691
416 30 85 0 22.102 7.181 28.480
417 30 97 0 22.333 4.760 27.658
418 30 85 0 22.630 6.136 30.738
419 30 85 0 23.276 4.714 29.883
420 30 97 0 20.624 5.733 29.663
421 31 99 0 45.112 39.610 7.173
422 31 96 0 45.030 39.306 8.565
423 31 100 0 43.977 40.549 6.768
424 31 96 0 42.744 39.939 7.183
425 31 99 0 44.106 41.932 7.414
426 31 96 0 43.009 42.749 6.984
427 31 85 0 45.038 38.664 6.629
428 31 85 0 46.093 40.055 6.969
429 31 97 0 44.123 38.932 8.682
430 31 85 0 43.944 40.649 5.680
431 31 97 0 42.188 40.657 7.553
432 31 85 0 45.042 42.429 7.128
433 31 85 0 44.055 41.865 8.499
434 31 97 0 43.059 42.838 6.013