LAMMPS Description

30600  atoms
22300  bonds
19400  angles
15300  dihedrals
0  impropers

906  atom types
379  bond types
1017  angle types
800  dihedral types
6  improper types

0 50.0 xlo xhi
0 50.0 ylo yhi
-100 150.0 zlo zhi

Masses

1 18.998  # 1
2 14.027  # 2
3 12.011  # 3
4 15.999  # 4
5 15.999  # 5
6 15.035  # 6
7 1.008  # 7
8 16.043  # 8
9 15.035  # 9
10 15.035  # 10
11 15.035  # 11
12 15.035  # 12
13 14.027  # 13
14 14.027  # 14
15 13.019  # 15
16 13.019  # 16
17 13.019  # 17
18 12.011  # 18
19 12.011  # 19
20 15.999  # 20
21 1.008  # 21
22 15.035  # 22
23 14.027  # 23
24 32.06  # 24
25 32.06  # 25
26 32.06  # 26
27 32.06  # 27
28 1.008  # 28
29 1.008  # 29
30 15.035  # 30
31 14.027  # 31
32 15.035  # 32
33 14.027  # 33
34 15.035  # 34
35 14.027  # 35
36 14.007  # 36
37 12.011  # 37
38 15.035  # 38
39 13.019  # 39
40 12.011  # 40
41 15.999  # 41
42 15.035  # 42
43 14.027  # 43
44 14.027  # 44
45 35.453  # 45
46 12.011  # 46
47 35.453  # 47
48 12.011  # 48
49 35.453  # 49
50 32.06  # 50
51 15.999  # 51
52 15.035  # 52
53 15.999  # 53
54 14.007  # 54
55 12.011  # 55
56 15.035  # 56
57 1.0  # 57
58 4.003  # 58
59 20.179  # 59
60 39.948  # 60
61 83.8  # 61
62 131.3  # 62
63 15.999  # 63
64 1.008  # 64
65 15.999  # 65
66 1.008  # 66
67 1e-30  # 67
68 15.999  # 68
69 1.008  # 69
70 15.999  # 70
71 1.008  # 71
72 1e-30  # 72
73 15.999  # 73
74 1.008  # 74
75 1e-30  # 75
76 15.999  # 76
77 1.008  # 77
78 14.007  # 78
79 1.008  # 79
80 12.011  # 80
81 12.011  # 81
82 12.011  # 82
83 12.011  # 83
84 12.011  # 84
85 1.008  # 85
86 12.011  # 86
87 12.011  # 87
88 12.011  # 88
89 1.008  # 89
90 12.011  # 90
91 1.008  # 91
92 12.011  # 92
93 12.011  # 93
94 12.011  # 94
95 12.011  # 95
96 15.999  # 96
97 1.008  # 97
98 1.008  # 98
99 12.011  # 99
100 12.011  # 100
101 12.011  # 101
102 12.011  # 102
103 12.011  # 103
104 15.999  # 104
105 1.008  # 105
106 18.998  # 106
107 1.008  # 107
108 12.011  # 108
109 15.999  # 109
110 1.008  # 110
111 15.999  # 111
112 1.008  # 112
113 15.999  # 113
114 1.008  # 114
115 12.011  # 115
116 12.011  # 116
117 12.011  # 117
118 1.008  # 118
119 15.999  # 119
120 12.011  # 120
121 15.999  # 121
122 15.999  # 122
123 12.011  # 123
124 12.011  # 124
125 12.011  # 125
126 12.011  # 126
127 1.008  # 127
128 15.999  # 128
129 15.999  # 129
130 1.008  # 130
131 12.011  # 131
132 1.008  # 132
133 12.011  # 133
134 1.008  # 134
135 12.011  # 135
136 1.008  # 136
137 12.011  # 137
138 1.008  # 138
139 12.011  # 139
140 12.011  # 140
141 12.011  # 141
142 32.06  # 142
143 32.06  # 143
144 32.06  # 144
145 32.06  # 145
146 1.008  # 146
147 1.008  # 147
148 12.011  # 148
149 12.011  # 149
150 12.011  # 150
151 12.011  # 151
152 12.011  # 152
153 12.011  # 153
154 12.011  # 154
155 12.011  # 155
156 12.011  # 156
157 12.011  # 157
158 12.011  # 158
159 12.011  # 159
160 12.011  # 160
161 12.011  # 161
162 12.011  # 162
163 12.011  # 163
164 32.06  # 164
165 12.011  # 165
166 12.011  # 166
167 12.011  # 167
168 35.453  # 168
169 12.011  # 169
170 12.011  # 170
171 12.011  # 171
172 12.011  # 172
173 12.011  # 173
174 12.011  # 174
175 12.011  # 175
176 12.011  # 176
177 12.011  # 177
178 15.999  # 178
179 14.007  # 179
180 14.007  # 180
181 14.007  # 181
182 1.008  # 182
183 1.008  # 183
184 12.011  # 184
185 12.011  # 185
186 12.011  # 186
187 12.011  # 187
188 12.011  # 188
189 12.011  # 189
190 15.999  # 190
191 14.007  # 191
192 1.008  # 192
193 14.007  # 193
194 12.011  # 194
195 15.999  # 195
196 1.008  # 196
197 1.008  # 197
198 12.011  # 198
199 12.011  # 199
200 12.011  # 200
201 12.011  # 201
202 12.011  # 202
203 12.011  # 203
204 14.007  # 204
205 12.011  # 205
206 35.453  # 206
207 14.007  # 207
208 12.011  # 208
209 12.011  # 209
210 15.999  # 210
211 15.999  # 211
212 1.008  # 212
213 12.011  # 213
214 15.999  # 214
215 12.011  # 215
216 12.011  # 216
217 12.011  # 217
218 12.011  # 218
219 12.011  # 219
220 15.999  # 220
221 1.008  # 221
222 12.011  # 222
223 15.999  # 223
224 1.008  # 224
225 12.011  # 225
226 12.011  # 226
227 12.011  # 227
228 12.011  # 228
229 14.007  # 229
230 14.007  # 230
231 14.007  # 231
232 1.008  # 232
233 1.008  # 233
234 12.011  # 234
235 12.011  # 235
236 12.011  # 236
237 12.011  # 237
238 12.011  # 238
239 12.011  # 239
240 12.011  # 240
241 12.011  # 241
242 12.011  # 242
243 14.007  # 243
244 1.008  # 244
245 12.011  # 245
246 14.007  # 246
247 1.008  # 247
248 12.011  # 248
249 12.011  # 249
250 12.011  # 250
251 12.011  # 251
252 14.007  # 252
253 1.008  # 253
254 14.007  # 254
255 12.011  # 255
256 14.007  # 256
257 1.008  # 257
258 12.011  # 258
259 1.008  # 259
260 12.011  # 260
261 1.008  # 261
262 14.007  # 262
263 12.011  # 263
264 14.007  # 264
265 12.011  # 265
266 12.011  # 266
267 12.011  # 267
268 1.008  # 268
269 15.999  # 269
270 1.008  # 270
271 15.999  # 271
272 1.008  # 272
273 1.008  # 273
274 12.011  # 274
275 1.008  # 275
276 14.007  # 276
277 12.011  # 277
278 14.007  # 278
279 12.011  # 279
280 12.011  # 280
281 12.011  # 281
282 1.008  # 282
283 15.999  # 283
284 14.007  # 284
285 1.008  # 285
286 1.008  # 286
287 1.008  # 287
288 1.008  # 288
289 14.007  # 289
290 12.011  # 290
291 14.007  # 291
292 12.011  # 292
293 12.011  # 293
294 12.011  # 294
295 14.007  # 295
296 12.011  # 296
297 14.007  # 297
298 1.008  # 298
299 14.007  # 299
300 1.008  # 300
301 1.008  # 301
302 1.008  # 302
303 1.008  # 303
304 14.007  # 304
305 12.011  # 305
306 14.007  # 306
307 12.011  # 307
308 12.011  # 308
309 12.011  # 309
310 1.008  # 310
311 14.007  # 311
312 1.008  # 312
313 15.999  # 313
314 12.011  # 314
315 1.008  # 315
316 12.011  # 316
317 1.008  # 317
318 12.011  # 318
319 1.008  # 319
320 14.007  # 320
321 12.011  # 321
322 14.007  # 322
323 12.011  # 323
324 12.011  # 324
325 12.011  # 325
326 1.008  # 326
327 15.999  # 327
328 1.008  # 328
329 14.007  # 329
330 1.008  # 330
331 1.008  # 331
332 1.008  # 332
333 1.008  # 333
334 12.011  # 334
335 1.008  # 335
336 30.974  # 336
337 15.999  # 337
338 15.999  # 338
339 15.035  # 339
340 12.011  # 340
341 35.453  # 341
342 12.011  # 342
343 18.998  # 343
344 35.453  # 344
345 79.904  # 345
346 126.905  # 346
347 18.039  # 347
348 6.941  # 348
349 22.99  # 349
350 39.098  # 350
351 85.468  # 351
352 132.905  # 352
353 24.305  # 353
354 40.08  # 354
355 87.62  # 355
356 137.33  # 356
357 12.011  # 357
358 1.008  # 358
359 32.06  # 359
360 12.011  # 360
361 1.008  # 361
362 15.999  # 362
363 12.011  # 363
364 1.008  # 364
365 12.011  # 365
366 14.007  # 366
367 12.011  # 367
368 1.008  # 368
369 14.007  # 369
370 1.008  # 370
371 12.011  # 371
372 1.008  # 372
373 12.011  # 373
374 1.008  # 374
375 1e-30  # 375
376 15.999  # 376
377 1.008  # 377
378 238.029  # 378
379 15.999  # 379
380 15.999  # 380
381 30.974  # 381
382 15.999  # 382
383 15.999  # 383
384 12.011  # 384
385 1.008  # 385
386 30.974  # 386
387 15.999  # 387
388 15.999  # 388
389 12.011  # 389
390 1.008  # 390
391 30.974  # 391
392 15.999  # 392
393 15.999  # 393
394 12.011  # 394
395 1.008  # 395
396 12.011  # 396
397 1.008  # 397
398 12.011  # 398
399 12.011  # 399
400 1.008  # 400
401 12.011  # 401
402 12.011  # 402
403 1.008  # 403
404 12.011  # 404
405 12.011  # 405
406 12.011  # 406
407 15.999  # 407
408 15.999  # 408
409 12.011  # 409
410 1.008  # 410
411 12.011  # 411
412 12.011  # 412
413 12.011  # 413
414 15.999  # 414
415 32.06  # 415
416 15.999  # 416
417 12.011  # 417
418 1.008  # 418
419 14.007  # 419
420 1.008  # 420
421 14.007  # 421
422 1.008  # 422
423 12.011  # 423
424 1.008  # 424
425 12.011  # 425
426 1.008  # 426
427 12.011  # 427
428 1.008  # 428
429 12.011  # 429
430 12.011  # 430
431 12.011  # 431
432 12.011  # 432
433 12.011  # 433
434 32.06  # 434
435 15.999  # 435
436 32.06  # 436
437 32.06  # 437
438 15.999  # 438
439 12.011  # 439
440 12.011  # 440
441 12.011  # 441
442 12.011  # 442
443 12.011  # 443
444 14.007  # 444
445 1.008  # 445
446 12.011  # 446
447 12.011  # 447
448 12.011  # 448
449 12.011  # 449
450 12.011  # 450
451 12.011  # 451
452 14.007  # 452
453 14.007  # 453
454 1.008  # 454
455 12.011  # 455
456 12.011  # 456
457 12.011  # 457
458 12.011  # 458
459 12.011  # 459
460 12.011  # 460
461 14.007  # 461
462 12.011  # 462
463 12.011  # 463
464 12.011  # 464
465 1.008  # 465
466 1.008  # 466
467 1.008  # 467
468 14.007  # 468
469 12.011  # 469
470 1.008  # 470
471 14.007  # 471
472 12.011  # 472
473 12.011  # 473
474 12.011  # 474
475 1.008  # 475
476 1.008  # 476
477 1.008  # 477
478 14.007  # 478
479 12.011  # 479
480 12.011  # 480
481 1.008  # 481
482 1.008  # 482
483 14.007  # 483
484 12.011  # 484
485 12.011  # 485
486 1.008  # 486
487 1.008  # 487
488 1.008  # 488
489 14.007  # 489
490 14.007  # 490
491 12.011  # 491
492 12.011  # 492
493 12.011  # 493
494 1.008  # 494
495 1.008  # 495
496 1.008  # 496
497 1.008  # 497
498 14.007  # 498
499 12.011  # 499
500 14.007  # 500
501 12.011  # 501
502 12.011  # 502
503 1.008  # 503
504 1.008  # 504
505 1.008  # 505
506 1.008  # 506
507 15.999  # 507
508 12.011  # 508
509 12.011  # 509
510 1.008  # 510
511 1.008  # 511
512 15.999  # 512
513 12.011  # 513
514 14.007  # 514
515 12.011  # 515
516 12.011  # 516
517 1.008  # 517
518 1.008  # 518
519 1.008  # 519
520 15.999  # 520
521 14.007  # 521
522 12.011  # 522
523 12.011  # 523
524 12.011  # 524
525 1.008  # 525
526 1.008  # 526
527 1.008  # 527
528 14.007  # 528
529 12.011  # 529
530 12.011  # 530
531 12.011  # 531
532 12.011  # 532
533 12.011  # 533
534 12.011  # 534
535 12.011  # 535
536 12.011  # 536
537 1.008  # 537
538 1.008  # 538
539 1.008  # 539
540 1.008  # 540
541 1.008  # 541
542 1.008  # 542
543 1.008  # 543
544 14.007  # 544
545 12.011  # 545
546 12.011  # 546
547 12.011  # 547
548 12.011  # 548
549 12.011  # 549
550 12.011  # 550
551 12.011  # 551
552 12.011  # 552
553 12.011  # 553
554 1.008  # 554
555 1.008  # 555
556 1.008  # 556
557 1.008  # 557
558 1.008  # 558
559 1.008  # 559
560 1.008  # 560
561 14.007  # 561
562 12.011  # 562
563 14.007  # 563
564 12.011  # 564
565 12.011  # 565
566 12.011  # 566
567 14.007  # 567
568 12.011  # 568
569 14.007  # 569
570 1.008  # 570
571 1.008  # 571
572 1.008  # 572
573 1.008  # 573
574 32.06  # 574
575 12.011  # 575
576 14.007  # 576
577 12.011  # 577
578 12.011  # 578
579 1.008  # 579
580 1.008  # 580
581 1.008  # 581
582 14.007  # 582
583 12.011  # 583
584 1.008  # 584
585 12.011  # 585
586 12.011  # 586
587 14.007  # 587
588 12.011  # 588
589 12.011  # 589
590 12.011  # 590
591 12.011  # 591
592 12.011  # 592
593 12.011  # 593
594 1.008  # 594
595 1.008  # 595
596 1.008  # 596
597 1.008  # 597
598 14.007  # 598
599 12.011  # 599
600 14.007  # 600
601 12.011  # 601
602 12.011  # 602
603 12.011  # 603
604 1.008  # 604
605 1.008  # 605
606 1.008  # 606
607 1.008  # 607
608 12.011  # 608
609 12.011  # 609
610 12.011  # 610
611 12.011  # 611
612 12.011  # 612
613 12.011  # 613
614 12.011  # 614
615 12.011  # 615
616 12.011  # 616
617 12.011  # 617
618 12.011  # 618
619 12.011  # 619
620 12.011  # 620
621 12.011  # 621
622 12.011  # 622
623 32.06  # 623
624 1.008  # 624
625 12.011  # 625
626 12.011  # 626
627 14.007  # 627
628 12.011  # 628
629 12.011  # 629
630 12.011  # 630
631 12.011  # 631
632 12.011  # 632
633 12.011  # 633
634 12.011  # 634
635 12.011  # 635
636 12.011  # 636
637 32.06  # 637
638 227.0  # 638
639 232.038  # 639
640 243.0  # 640
641 12.011  # 641
642 12.011  # 642
643 1.008  # 643
644 138.906  # 644
645 144.24  # 645
646 151.96  # 646
647 157.25  # 647
648 173.04  # 648
649 12.011  # 649
650 35.453  # 650
651 1.008  # 651
652 12.011  # 652
653 12.011  # 653
654 12.011  # 654
655 12.011  # 655
656 1.008  # 656
657 12.011  # 657
658 1.008  # 658
659 12.011  # 659
660 18.998  # 660
661 12.011  # 661
662 18.998  # 662
663 79.904  # 663
664 14.027  # 664
665 12.011  # 665
666 12.011  # 666
667 18.998  # 667
668 12.011  # 668
669 18.998  # 669
670 12.011  # 670
671 79.904  # 671
672 12.011  # 672
673 126.905  # 673
674 12.011  # 674
675 32.06  # 675
676 12.011  # 676
677 12.011  # 677
678 12.011  # 678
679 12.011  # 679
680 12.011  # 680
681 1.008  # 681
682 1.008  # 682
683 12.011  # 683
684 14.007  # 684
685 1.008  # 685
686 1.008  # 686
687 1.008  # 687
688 12.011  # 688
689 12.011  # 689
690 14.007  # 690
691 14.007  # 691
692 14.007  # 692
693 12.011  # 693
694 14.007  # 694
695 12.011  # 695
696 12.011  # 696
697 12.011  # 697
698 12.011  # 698
699 12.011  # 699
700 1.008  # 700
701 14.007  # 701
702 15.999  # 702
703 12.011  # 703
704 1.008  # 704
705 12.011  # 705
706 12.011  # 706
707 12.011  # 707
708 14.007  # 708
709 12.011  # 709
710 12.011  # 710
711 14.007  # 711
712 15.999  # 712
713 12.011  # 713
714 15.999  # 714
715 12.011  # 715
716 12.011  # 716
717 12.011  # 717
718 1.008  # 718
719 1.008  # 719
720 1.008  # 720
721 15.999  # 721
722 30.974  # 722
723 12.011  # 723
724 12.011  # 724
725 1.008  # 725
726 30.974  # 726
727 18.998  # 727
728 14.007  # 728
729 15.999  # 729
730 14.007  # 730
731 14.007  # 731
732 14.007  # 732
733 12.011  # 733
734 12.011  # 734
735 12.011  # 735
736 12.011  # 736
737 12.011  # 737
738 12.011  # 738
739 1.008  # 739
740 1.008  # 740
741 1.008  # 741
742 12.011  # 742
743 12.011  # 743
744 12.011  # 744
745 12.011  # 745
746 12.011  # 746
747 12.011  # 747
748 12.011  # 748
749 12.011  # 749
750 12.011  # 750
751 12.011  # 751
752 12.011  # 752
753 12.011  # 753
754 12.011  # 754
755 12.011  # 755
756 1.008  # 756
757 12.011  # 757
758 12.011  # 758
759 12.011  # 759
760 1.008  # 760
761 12.011  # 761
762 12.011  # 762
763 12.011  # 763
764 15.999  # 764
765 1.008  # 765
766 14.007  # 766
767 14.007  # 767
768 14.007  # 768
769 12.011  # 769
770 14.007  # 770
771 1.008  # 771
772 12.011  # 772
773 12.011  # 773
774 12.011  # 774
775 12.011  # 775
776 12.011  # 776
777 12.011  # 777
778 12.011  # 778
779 12.011  # 779
780 1.008  # 780
781 12.011  # 781
782 12.011  # 782
783 14.007  # 783
784 15.999  # 784
785 1.008  # 785
786 18.998  # 786
787 12.011  # 787
788 1.008  # 788
789 12.011  # 789
790 12.011  # 790
791 12.011  # 791
792 12.011  # 792
793 12.011  # 793
794 12.011  # 794
795 18.998  # 795
796 12.011  # 796
797 1.008  # 797
798 12.011  # 798
799 12.011  # 799
800 35.453  # 800
801 12.011  # 801
802 1.008  # 802
803 12.011  # 803
804 12.011  # 804
805 79.904  # 805
806 12.011  # 806
807 1.008  # 807
808 12.011  # 808
809 12.011  # 809
810 18.998  # 810
811 35.453  # 811
812 79.904  # 812
813 12.011  # 813
814 15.999  # 814
815 12.011  # 815
816 18.998  # 816
817 14.007  # 817
818 12.011  # 818
819 12.011  # 819
820 12.011  # 820
821 12.011  # 821
822 15.999  # 822
823 14.007  # 823
824 1.008  # 824
825 15.999  # 825
826 1.008  # 826
827 12.011  # 827
828 12.011  # 828
829 12.011  # 829
830 12.011  # 830
831 12.011  # 831
832 12.011  # 832
833 12.011  # 833
834 1e-30  # 834
835 12.011  # 835
836 12.011  # 836
837 12.011  # 837
838 126.905  # 838
839 1.008  # 839
840 14.007  # 840
841 12.011  # 841
842 12.011  # 842
843 14.007  # 843
844 12.011  # 844
845 12.011  # 845
846 15.999  # 846
847 14.007  # 847
848 12.011  # 848
849 12.011  # 849
850 12.011  # 850
851 12.011  # 851
852 1.008  # 852
853 12.011  # 853
854 15.999  # 854
855 1.008  # 855
856 12.011  # 856
857 12.011  # 857
858 12.011  # 858
859 12.011  # 859
860 12.011  # 860
861 12.011  # 861
862 12.011  # 862
863 12.011  # 863
864 12.011  # 864
865 12.011  # 865
866 28.086  # 866
867 28.086  # 867
868 28.086  # 868
869 28.086  # 869
870 1.008  # 870
871 12.011  # 871
872 12.011  # 872
873 12.011  # 873
874 12.011  # 874
875 18.998  # 875
876 35.453  # 876
877 79.904  # 877
878 126.905  # 878
879 6.941  # 879
880 22.99  # 880
881 39.098  # 881
882 85.468  # 882
883 132.905  # 883
884 24.305  # 884
885 40.08  # 885
886 87.62  # 886
887 137.33  # 887
888 12.011  # 888
889 12.011  # 889
890 12.011  # 890
891 12.011  # 891
892 1.008  # 892
893 14.007  # 893
894 12.011  # 894
895 14.007  # 895
896 12.011  # 896
897 12.011  # 897
898 12.011  # 898
899 1.008  # 899
900 12.011  # 900
901 12.011  # 901
902 12.011  # 902
903 12.011  # 903
904 12.011  # 904
905 15.999  # 905
906 12.011  # 906

Atoms

1 1 80 0 44.152 45.333 22.812
2 1 81 0 43.393 44.342 21.942
3 1 81 0 42.762 45.033 20.732
4 1 81 0 42.001 44.028 19.861
5 1 100 0 41.356 44.691 18.641
6 1 96 0 42.361 45.288 17.818
7 1 99 0 40.544 43.674 17.821
8 1 96 0 39.941 44.283 16.681
9 1 85 0 44.596 44.818 23.671
10 1 85 0 43.485 46.112 23.193
11 1 85 0 44.959 45.811 22.249
12 1 85 0 42.614 43.861 22.545
13 1 85 0 44.082 43.558 21.609
14 1 85 0 43.546 45.518 20.141
15 1 85 0 42.078 45.818 21.072
16 1 85 0 41.224 43.540 20.462
17 1 85 0 42.701 43.250 19.529
18 1 85 0 40.698 45.506 18.961
19 1 97 0 42.797 44.577 17.314
20 1 85 0 39.751 43.231 18.430
21 1 85 0 41.191 42.872 17.449
22 1 97 0 39.885 45.241 16.848
23 2 80 0 39.980 29.983 11.096
24 2 81 0 38.951 29.048 10.477
25 2 81 0 39.275 27.583 10.779
26 2 81 0 38.233 26.650 10.153
27 2 100 0 38.533 25.176 10.437
28 2 96 0 38.524 24.936 11.846
29 2 99 0 37.511 24.259 9.744
30 2 96 0 37.782 22.883 10.005
31 2 85 0 39.728 31.024 10.869
32 2 85 0 40.980 29.781 10.700
33 2 85 0 40.007 29.870 12.184
34 2 85 0 38.928 29.209 9.393
35 2 85 0 37.958 29.300 10.867
36 2 85 0 39.305 27.435 11.864
37 2 85 0 40.269 27.339 10.390
38 2 85 0 38.204 26.812 9.069
39 2 85 0 37.245 26.908 10.554
40 2 85 0 39.541 24.924 10.090
41 2 97 0 37.595 24.897 12.138
42 2 85 0 37.529 24.410 8.661
43 2 85 0 36.499 24.460 10.110
44 2 97 0 38.717 22.806 10.266
45 3 80 0 20.831 38.664 40.286
46 3 81 0 21.105 39.324 38.942
47 3 81 0 20.081 40.419 38.640
48 3 81 0 20.366 41.079 37.287
49 3 100 0 19.355 42.180 36.955
50 3 96 0 19.406 43.208 37.947
51 3 99 0 19.623 42.779 35.565
52 3 96 0 18.687 43.807 35.249
53 3 85 0 21.575 37.885 40.483
54 3 85 0 19.841 38.197 40.299
55 3 85 0 20.881 39.394 41.099
56 3 85 0 21.078 38.560 38.157
57 3 85 0 22.116 39.748 38.953
58 3 85 0 20.110 41.172 39.435
59 3 85 0 19.074 39.989 38.636
60 3 85 0 20.345 40.316 36.498
61 3 85 0 21.378 41.504 37.310
62 3 85 0 18.337 41.775 36.986
63 3 97 0 20.194 43.754 37.772
64 3 85 0 19.557 42.009 34.792
65 3 85 0 20.620 43.232 35.525
66 3 97 0 17.899 43.676 35.807
67 4 80 0 17.150 40.163 -1.458
68 4 81 0 18.438 39.382 -1.241
69 4 81 0 18.581 38.937 0.215
70 4 81 0 19.879 38.150 0.424
71 4 100 0 20.052 37.692 1.875
72 4 96 0 18.972 36.834 2.250
73 4 99 0 21.392 36.964 2.071
74 4 96 0 21.560 36.532 3.420
75 4 85 0 17.067 40.470 -2.506
76 4 85 0 17.129 41.064 -0.838
77 4 85 0 16.276 39.553 -1.214
78 4 85 0 19.289 40.011 -1.524
79 4 85 0 18.441 38.508 -1.902
80 4 85 0 17.721 38.317 0.491
81 4 85 0 18.573 39.814 0.870
82 4 85 0 20.734 38.775 0.136
83 4 85 0 19.870 37.275 -0.239
84 4 85 0 20.005 38.555 2.548
85 4 97 0 19.136 35.957 1.859
86 4 85 0 22.229 37.619 1.817
87 4 85 0 21.442 36.069 1.441
88 4 97 0 20.976 37.072 3.982
89 5 80 0 28.139 32.343 1.149
90 5 81 0 27.241 32.348 2.377
91 5 81 0 26.536 33.695 2.547
92 5 81 0 25.633 33.690 3.784
93 5 100 0 24.915 35.028 3.982
94 5 96 0 24.084 35.310 2.853
95 5 99 0 24.068 35.019 5.266
96 5 96 0 23.394 36.261 5.456
97 5 85 0 28.632 31.370 1.046
98 5 85 0 28.915 33.110 1.227
99 5 85 0 27.560 32.527 0.239
100 5 85 0 27.847 32.130 3.264
101 5 85 0 26.499 31.546 2.281
102 5 85 0 25.941 33.908 1.652
103 5 85 0 27.282 34.491 2.638
104 5 85 0 26.236 33.467 4.674
105 5 85 0 24.892 32.888 3.676
106 5 85 0 25.646 35.842 4.035
107 5 97 0 23.280 34.764 2.929
108 5 85 0 24.696 34.835 6.142
109 5 85 0 23.298 34.242 5.216
110 5 97 0 23.866 36.940 4.943
111 6 80 0 30.540 4.853 23.481
112 6 81 0 29.673 6.101 23.388
113 6 81 0 28.969 6.390 24.715
114 6 81 0 28.101 7.649 24.613
115 6 100 0 27.381 7.964 25.927
116 6 96 0 28.335 8.191 26.966
117 6 99 0 26.466 9.191 25.778
118 6 96 0 25.793 9.493 26.998
119 6 85 0 31.034 4.666 22.522
120 6 85 0 29.936 3.975 23.729
121 6 85 0 31.314 4.969 24.245
122 6 85 0 28.931 5.962 22.594
123 6 85 0 30.303 6.952 23.104
124 6 85 0 29.719 6.518 25.503
125 6 85 0 28.346 5.535 24.995
126 6 85 0 27.360 7.516 23.815
127 6 85 0 28.741 8.496 24.333
128 6 85 0 26.783 7.102 26.242
129 6 97 0 28.701 9.086 26.848
130 6 85 0 25.711 9.019 25.006
131 6 85 0 27.049 10.078 25.507
132 6 97 0 25.786 8.686 27.544
133 7 80 0 42.614 41.150 -0.213
134 7 81 0 42.913 39.660 -0.287
135 7 81 0 44.326 39.400 -0.813
136 7 81 0 44.618 37.898 -0.882
137 7 100 0 46.027 37.606 -1.407
138 7 96 0 47.003 38.187 -0.540
139 7 99 0 46.271 36.092 -1.529
140 7 96 0 47.581 35.811 -2.016
141 7 85 0 41.600 41.313 0.166
142 7 85 0 42.685 41.614 -1.202
143 7 85 0 43.313 41.657 0.459
144 7 85 0 42.177 39.180 -0.942
145 7 85 0 42.798 39.223 0.711
146 7 85 0 45.053 39.891 -0.156
147 7 85 0 44.435 39.843 -1.808
148 7 85 0 43.880 37.413 -1.533
149 7 85 0 44.505 37.471 0.123
150 7 85 0 46.167 38.077 -2.386
151 7 97 0 47.081 37.620 0.248
152 7 85 0 45.549 35.639 -2.214
153 7 85 0 46.182 35.605 -0.552
154 7 97 0 47.906 36.605 -2.478
155 8 80 0 36.617 34.324 20.559
156 8 81 0 36.998 35.671 19.960
157 8 81 0 36.762 35.695 18.448
158 8 81 0 37.145 37.054 17.854
159 8 100 0 36.922 37.108 16.340
160 8 96 0 35.541 36.890 16.041
161 8 99 0 37.376 38.458 15.761
162 8 96 0 37.169 38.518 14.351
163 8 85 0 36.793 34.329 21.639
164 8 85 0 37.215 33.518 20.122
165 8 85 0 35.560 34.104 20.388
166 8 85 0 38.053 35.872 20.175
167 8 85 0 36.407 36.457 20.444
168 8 85 0 35.707 35.483 18.242
169 8 85 0 37.351 34.905 17.971
170 8 85 0 38.200 37.263 18.073
171 8 85 0 36.545 37.833 18.343
172 8 85 0 37.473 36.299 15.851
173 8 97 0 35.058 37.714 16.233
174 8 85 0 38.439 38.625 15.956
175 8 85 0 36.804 39.282 16.202
176 8 97 0 37.112 37.605 14.018
177 9 80 0 44.938 11.488 43.224
178 9 81 0 44.728 12.991 43.115
179 9 81 0 46.004 13.700 42.658
180 9 81 0 45.783 15.212 42.549
181 9 100 0 47.046 15.951 42.096
182 9 96 0 47.447 15.488 40.805
183 9 99 0 46.816 17.471 42.059
184 9 96 0 47.987 18.166 41.635
185 9 85 0 44.013 11.001 43.550
186 9 85 0 45.720 11.253 43.952
187 9 85 0 45.223 11.061 42.258
188 9 85 0 44.414 13.380 44.090
189 9 85 0 43.916 13.188 42.405
190 9 85 0 46.315 13.298 41.688
191 9 85 0 46.812 13.496 43.369
192 9 85 0 45.463 15.605 43.523
193 9 85 0 44.972 15.398 41.834
194 9 85 0 47.876 15.725 42.774
195 9 97 0 46.861 15.897 40.143
196 9 85 0 46.538 17.844 43.048
197 9 85 0 46.020 17.725 41.351
198 9 97 0 48.753 17.585 41.790
199 10 80 0 44.617 27.487 30.944
200 10 81 0 43.665 28.204 29.997
201 10 81 0 43.291 27.318 28.807
202 10 81 0 42.332 28.047 27.860
203 10 100 0 41.941 27.185 26.657
204 10 96 0 41.278 25.999 27.099
205 10 99 0 41.032 27.963 25.690
206 10 96 0 40.661 27.167 24.567
207 10 85 0 44.870 28.138 31.788
208 10 85 0 45.546 27.215 30.435
209 10 85 0 44.160 26.577 31.344
210 10 85 0 44.142 29.125 29.641
211 10 85 0 42.763 28.493 30.548
212 10 85 0 42.824 26.397 29.174
213 10 85 0 44.197 27.030 28.264
214 10 85 0 42.804 28.973 27.506
215 10 85 0 41.431 28.328 28.421
216 10 85 0 42.839 26.854 26.125
217 10 97 0 40.364 26.237 27.340
218 10 85 0 41.539 28.858 25.319
219 10 85 0 40.104 28.265 26.188
220 10 97 0 41.314 26.450 24.478
221 11 80 0 6.110 37.463 55.155
222 11 81 0 4.643 37.061 55.120
223 11 81 0 4.124 36.724 56.519
224 11 81 0 2.646 36.323 56.474
225 11 100 0 2.097 35.977 57.861
226 11 96 0 2.201 37.111 58.725
227 11 99 0 0.633 35.514 57.779
228 11 96 0 0.113 35.192 59.067
229 11 85 0 6.461 37.701 54.146
230 11 85 0 6.730 36.651 55.547
231 11 85 0 6.260 38.347 55.783
232 11 85 0 4.526 36.194 54.460
233 11 85 0 4.058 37.883 54.691
234 11 85 0 4.253 37.594 57.173
235 11 85 0 4.715 35.907 56.944
236 11 85 0 2.524 35.458 55.809
237 11 85 0 2.069 37.153 56.047
238 11 85 0 2.703 35.187 58.317
239 11 97 0 1.484 37.730 58.497
240 11 85 0 0.543 34.628 57.144
241 11 85 0 -0.002 36.307 57.368
242 11 97 0 0.867 35.007 59.656
243 12 80 0 5.192 38.153 28.217
244 12 81 0 3.885 37.745 27.553
245 12 81 0 3.994 37.796 26.028
246 12 81 0 2.675 37.382 25.369
247 12 100 0 2.753 37.425 23.840
248 12 96 0 3.759 36.524 23.375
249 12 99 0 1.398 37.070 23.205
250 12 96 0 1.462 37.106 21.781
251 12 85 0 5.092 38.108 29.306
252 12 85 0 5.468 39.176 27.943
253 12 85 0 6.006 37.484 27.923
254 12 85 0 3.087 38.415 27.893
255 12 85 0 3.622 36.731 27.876
256 12 85 0 4.800 37.130 25.699
257 12 85 0 4.261 38.810 25.712
258 12 85 0 1.872 38.047 25.711
259 12 85 0 2.423 36.364 25.695
260 12 85 0 3.058 38.423 23.509
261 12 97 0 3.398 35.620 23.421
262 12 85 0 0.623 37.771 23.529
263 12 85 0 1.093 36.056 23.485
264 12 97 0 2.220 37.663 21.530
265 13 80 0 32.809 6.443 7.820
266 13 81 0 34.313 6.323 8.024
267 13 81 0 35.066 6.429 6.697
268 13 81 0 36.578 6.308 6.913
269 13 100 0 37.360 6.409 5.600
270 13 96 0 37.120 7.676 4.982
271 13 99 0 38.867 6.219 5.836
272 13 96 0 39.603 6.314 4.619
273 13 85 0 32.291 6.365 8.781
274 13 85 0 32.437 5.646 7.169
275 13 85 0 32.551 7.406 7.372
276 13 85 0 34.532 5.361 8.502
277 13 85 0 34.645 7.112 8.708
278 13 85 0 34.832 7.389 6.223
279 13 85 0 34.727 5.640 6.018
280 13 85 0 36.802 5.349 7.396
281 13 85 0 36.900 7.106 7.594
282 13 85 0 37.004 5.652 4.893
283 13 97 0 37.649 8.344 5.454
284 13 85 0 39.069 5.241 6.281
285 13 85 0 39.256 6.995 6.505
286 13 97 0 38.990 6.137 3.883
287 14 80 0 38.866 30.388 26.718
288 14 81 0 37.911 31.502 27.123
289 14 81 0 38.662 32.680 27.747
290 14 81 0 37.694 33.796 28.150
291 14 100 0 38.417 34.990 28.780
292 14 96 0 39.343 35.550 27.847
293 14 99 0 37.417 36.066 29.236
294 14 96 0 38.082 37.183 29.821
295 14 85 0 38.309 29.557 26.274
296 14 85 0 39.412 30.005 27.585
297 14 85 0 39.591 30.743 25.980
298 14 85 0 37.182 31.104 27.838
299 14 85 0 37.357 31.836 26.239
300 14 85 0 39.395 33.064 27.029
301 14 85 0 39.217 32.338 28.627
302 14 85 0 36.958 33.401 28.862
303 14 85 0 37.147 34.127 27.257
304 14 85 0 39.010 34.658 29.639
305 14 97 0 38.838 36.080 27.204
306 14 85 0 36.720 35.659 29.974
307 14 85 0 36.843 36.448 28.384
308 14 97 0 38.963 36.888 30.114
309 15 80 0 32.575 35.622 56.409
310 15 81 0 31.163 35.297 55.943
311 15 81 0 30.996 35.564 54.446
312 15 81 0 29.573 35.232 53.986
313 15 100 0 29.373 35.491 52.489
314 15 96 0 30.265 34.674 51.728
315 15 99 0 27.921 35.214 52.067
316 15 96 0 27.727 35.450 50.675
317 15 85 0 32.673 35.424 57.482
318 15 85 0 32.812 36.677 56.237
319 15 85 0 33.313 35.010 55.882
320 15 85 0 30.451 35.905 56.512
321 15 85 0 30.948 34.245 56.163
322 15 85 0 31.718 34.959 53.887
323 15 85 0 31.217 36.614 54.233
324 15 85 0 28.855 35.834 54.557
325 15 85 0 29.369 34.176 54.206
326 15 85 0 29.629 36.528 52.251
327 15 97 0 29.904 33.769 51.712
328 15 85 0 27.228 35.854 52.621
329 15 85 0 27.656 34.167 52.253
330 15 97 0 28.435 36.045 50.370
331 16 80 0 25.458 30.526 -3.607
332 16 81 0 26.619 30.803 -2.662
333 16 81 0 27.650 29.673 -2.701
334 16 81 0 28.816 29.962 -1.749
335 16 100 0 29.865 28.847 -1.764
336 16 96 0 30.415 28.709 -3.076
337 16 99 0 30.989 29.129 -0.752
338 16 96 0 31.972 28.096 -0.761
339 16 85 0 24.734 31.345 -3.564
340 16 85 0 24.941 29.601 -3.331
341 16 85 0 25.806 30.434 -4.639
342 16 85 0 26.231 30.919 -1.644
343 16 85 0 27.091 31.751 -2.945
344 16 85 0 28.025 29.559 -3.724
345 16 85 0 27.172 28.729 -2.422
346 16 85 0 28.431 30.085 -0.729
347 16 85 0 29.283 30.911 -2.043
348 16 85 0 29.395 27.887 -1.526
349 16 97 0 31.051 29.433 -3.212
350 16 85 0 30.586 29.207 0.261
351 16 85 0 31.505 30.063 -0.998
352 16 97 0 31.562 27.296 -1.136
353 17 80 0 30.957 40.476 21.245
354 17 81 0 29.484 40.116 21.113
355 17 81 0 28.759 40.235 22.456
356 17 81 0 27.278 39.873 22.313
357 17 100 0 26.525 39.980 23.643
358 17 96 0 26.588 41.321 24.135
359 17 99 0 25.058 39.548 23.486
360 17 96 0 24.349 39.647 24.720
361 17 85 0 31.455 40.386 20.274
362 17 85 0 31.462 39.808 21.949
363 17 85 0 31.079 41.505 21.595
364 17 85 0 29.399 39.092 20.733
365 17 85 0 29.018 40.781 20.377
366 17 85 0 28.858 41.259 22.832
367 17 85 0 29.232 39.572 23.188
368 17 85 0 27.188 38.850 21.927
369 17 85 0 26.820 40.546 21.577
370 17 85 0 27.010 39.353 24.399
371 17 97 0 25.951 41.856 23.628
372 17 85 0 24.994 38.513 23.139
373 17 85 0 24.539 40.192 22.768
374 17 97 0 25.002 39.633 25.442
375 18 80 0 6.302 11.245 60.799
376 18 81 0 5.564 12.499 61.246
377 18 81 0 6.392 13.305 62.249
378 18 81 0 5.642 14.565 62.692
379 18 100 0 6.446 15.393 63.699
380 18 96 0 7.677 15.818 63.111
381 18 99 0 5.644 16.615 64.177
382 18 96 0 6.386 17.393 65.113
383 18 85 0 5.693 10.684 60.082
384 18 85 0 6.513 10.590 61.650
385 18 85 0 7.249 11.500 60.314
386 18 85 0 4.609 12.208 61.699
387 18 85 0 5.338 13.113 60.367
388 18 85 0 7.347 13.582 61.791
389 18 85 0 6.618 12.684 63.122
390 18 85 0 4.682 14.279 63.141
391 18 85 0 5.424 15.175 61.805
392 18 85 0 6.715 14.775 64.562
393 18 97 0 7.484 16.564 62.515
394 18 85 0 4.712 16.303 64.656
395 18 85 0 5.403 17.274 63.335
396 18 97 0 7.074 16.822 65.499
397 19 80 0 48.948 22.514 -6.967
398 19 81 0 48.963 24.033 -6.884
399 19 81 0 48.214 24.663 -8.060
400 19 81 0 48.234 26.192 -7.967
401 19 100 0 47.492 26.853 -9.133
402 19 96 0 46.122 26.446 -9.135
403 19 99 0 47.583 28.386 -9.051
404 19 96 0 46.893 29.009 -10.132
405 19 85 0 49.488 22.084 -6.117
406 19 85 0 49.430 22.166 -7.886
407 19 85 0 47.923 22.131 -6.947
408 19 85 0 50.003 24.380 -6.876
409 19 85 0 48.506 24.344 -5.938
410 19 85 0 47.179 24.304 -8.065
411 19 85 0 48.674 24.345 -9.001
412 19 85 0 49.273 26.543 -7.952
413 19 85 0 47.769 26.493 -7.019
414 19 85 0 47.914 26.514 -10.085
415 19 97 0 45.659 26.947 -8.439
416 19 85 0 48.626 28.713 -9.079
417 19 85 0 47.125 28.753 -8.126
418 19 97 0 46.812 28.357 -10.851
419 20 80 0 8.852 40.029 -7.967
420 20 81 0 9.572 38.990 -8.815
421 20 81 0 8.596 38.240 -9.724
422 20 81 0 9.330 37.197 -10.574
423 20 100 0 8.379 36.428 -11.495
424 20 96 0 7.733 37.330 -12.396
425 20 99 0 9.129 35.344 -12.287
426 20 96 0 8.251 34.624 -13.149
427 20 85 0 9.567 40.554 -7.326
428 20 85 0 8.101 39.559 -7.324
429 20 85 0 8.353 40.771 -8.598
430 20 85 0 10.083 38.282 -8.153
431 20 85 0 10.338 39.489 -9.418
432 20 85 0 8.083 38.956 -10.375
433 20 85 0 7.831 37.747 -9.116
434 20 85 0 9.849 36.490 -9.915